<?xml version="1.0"?>
<VTKFile type="UnstructuredGrid"  version="0.1"  >
<UnstructuredGrid>
<Piece  NumberOfPoints="2465" NumberOfCells="4736">
<Points>
<DataArray  type="Float64"  NumberOfComponents="3"  format="ascii">-1 -1 0  0 -1 0  0 0 0  1 0 0  1 1 0  -1 1 0  -0.7500000000004128 -1 0  -0.5000000000013305 -1 0  -0.2500000000006652 -1 0  0 -0.7500000000004128 0  0 -0.5000000000013305 0  0 -0.2500000000006652 0  0.2499999999994083 0 0  0.4999999999986718 0 0  0.7499999999993359 0 0  1 0.2499999999994083 0  1 0.4999999999986718 0  1 0.7499999999993359 0  0.500000000000989 1 0  2.625677453238495e-12 1 0  -0.4999999999986873 1 0  -1 0.500000000000989 0  -1 2.625677453238495e-12 0  -1 -0.4999999999986873 0  -0.3805724641828597 -0.6283131722624091 0  -0.5185453211809429 -0.1093797438356419 0  0.6282560163404198 0.3800278499035458 0  0.1085263196949736 0.5031164016316051 0  -0.3817550489055893 0.3687580659877924 0  0.3759093915336295 0.2647982804234598 0  -0.5984932270240866 -0.7649320865175777 0  0.7666859567900337 0.6023341049380243 0  -0.2671749708527912 -0.3740763478902425 0  0.439473604663822 0.6461891427661444 0  -0.6464506172844028 -0.4388447971776652 0  -0.2123729579746697 -0.08928477289956997 0  0.1240480198810369 0.2043720939551147 0  0.7524562757200886 0.8229038065844307 0  -0.825925925926336 -0.7502314814813982 0  -0.2341145918546136 0.6440052862182717 0  -0.6586707350777433 0.2278299722888436 0  -0.6251864404271965 0.6251864404276692 0  0.7931847687629292 0.2077423819323475 0  -0.2063275432977995 -0.7946199118628733 0  -0.128439389379655 0.2409058598343217 0  -0.3720573793485507 0.1003196196647931 0  0.5996004188704538 0.1743689373898828 0  -0.3977295921614834 -0.8300368678372887 0  0.831854398918799 0.3967014115697668 0  -0.1723958333337611 -0.599479166666772 0  -0.8750000000002064 -1 0  -1 -0.7499999999993436 0  -0.9129629629631679 -0.8751157407406991 0  -0.1250000000003326 -1 0  0 -0.8750000000002064 0  -0.1031637716488998 -0.8973099559314366 0  0 -0.1250000000003326 0  0.1249999999997042 0 0  -0.1061864789873349 -0.04464238644978499 0  0.06202400994051845 0.1021860469775573 0  -0.06421969468982749 0.1204529299171608 0  0.8749999999996679 0 0  1 0.1249999999997042 0  0.8965923843814646 0.1038711909661738 0  1 0.8749999999996679 0  0.7500000000004945 1 0  0.8762281378600443 0.9114519032922154 0  -0.7499999999993436 1 0  -1 0.7500000000004945 0  -0.8125932202135983 0.8125932202138346 0  -0.6250000000008716 -1 0  -0.6742466135122497 -0.8824660432587889 0  -0.7879629629633744 -0.8751157407406991 0  -0.3750000000009979 -1 0  -0.5492466135127085 -0.8824660432587889 0  -0.4488647960814069 -0.9150184339186443 0  -0.2281637716492323 -0.8973099559314366 0  -0.3238647960810743 -0.9150184339186443 0  0 -0.6250000000008716 0  -0.1031637716488998 -0.7723099559316431 0  -0.08619791666688055 -0.6747395833335924 0  0 -0.3750000000009979 0  -0.1335874854263956 -0.4370381739457865 0  -0.08619791666688055 -0.5497395833340513 0  -0.1335874854263956 -0.3120381739454539 0  -0.1061864789873349 -0.1696423864501176 0  0.37499999999904 0 0  0.3129546957665189 0.1323991402117299 0  0.1870240099402226 0.1021860469775573 0  0.6249999999990038 0 0  0.4379546957661506 0.1323991402117299 0  0.5498002094345628 0.0871844686949414 0  0.7715923843811325 0.1038711909661738 0  0.6748002094348948 0.0871844686949414 0  1 0.37499999999904 0  0.8965923843814646 0.2288711909658779 0  0.9159271994593995 0.3233507057845876 0  1 0.6249999999990038 0  0.8833429783950169 0.5511670524683481 0  0.9159271994593995 0.4483507057842193 0  0.8833429783950169 0.67616705246868 0  0.8762281378600443 0.7864519032918833 0  0.2500000000018073 1 0  0.4697368023324055 0.8230945713830722 0  0.6262281378605388 0.9114519032922154 0  -0.2499999999980308 1 0  0.05426315984879964 0.7515582008158026 0  0.2197368023332238 0.8230945713830722 0  -0.117057295925994 0.8220026431091358 0  -0.3670572959266504 0.8220026431091358 0  -0.5625932202129419 0.8125932202138346 0  -1 0.2500000000018073 0  -0.8293353675388717 0.3639149861449163 0  -0.8125932202135983 0.5625932202143291 0  -1 -0.2499999999980308 0  -0.7592726605904714 -0.05468987191650811 0  -0.8232253086422014 -0.2194223985875198 0  -0.8293353675388717 0.1139149861457346 0  -0.8232253086422014 -0.4694223985881762 0  -0.9129629629631679 -0.6251157407400427 0  -0.4895328456034732 -0.6966226293899934 0  -0.3238737175178255 -0.5011947600763258 0  -0.5135115407336313 -0.5335789847200372 0  -0.2934500037403296 -0.7114665420626411 0  -0.3891510281721716 -0.7291750200498489 0  -0.2764841487583104 -0.6138961694645906 0  -0.392860146016867 -0.2417280458629422 0  -0.5824979692326728 -0.2741122705066535 0  -0.3654591395778063 -0.09933225836760594 0  -0.5886080281293431 0.05922511422660085 0  -0.4453013502647468 -0.004530062085424405 0  0.5020827039370247 0.3224130651635028 0  0.6974709865652268 0.491180977420785 0  0.5338648105021209 0.5131084963348451 0  0.7107203925516745 0.2938851159179466 0  0.6139282176054368 0.2771983936467143 0  0.7300552076296094 0.3883646307366563 0  0.2422178556143016 0.3839573410275324 0  0.2739999621793978 0.5746527721988748 0  0.1162871697880053 0.3537442477933599 0  -0.06279413607982001 0.5735608439249384 0  -0.009956534842340693 0.3720111307329634 0  -0.3079348203801014 0.5063816761030321 0  -0.5202128919916663 0.298294019138318 0  -0.5034707446663929 0.4969722532077309 0  -0.2550972191426222 0.3048319629110571 0  -0.37690621412707 0.2345388428262928 0  0.4076914980987257 0.4554937115948021 0  0.2499787057073332 0.2345851871892873 0  0.4877549052020417 0.2195836089066713 0  -0.6224719221542447 -0.6018884418476215 0  -0.7122095764752112 -0.7575817839994879 0  -0.498111409592785 -0.7974844771774332 0  0.6030797807269279 0.6242616238520844 0  0.7595711162550611 0.7126189557612275 0  0.7992701778544163 0.4995177582538955 0  -0.456812794068597 -0.4064605725339538 0  -0.2397739644137304 -0.2316805603949063 0  -0.2197854020932761 -0.4867777572785073 0  0.5959649401919553 0.7345464746752876 0  -0.7361882716053694 -0.5945381393295317 0  -0.1704061736771623 0.07581054346737587 0  -0.2922151686616102 0.005517423382611561 0  -0.002195684749309042 0.2226389768947182 0  -0.429650516140905 0.6345958633229705 0  -0.1812769906171343 0.4424555730262967 0  -0.6419285877524699 0.4265082063582564 0  -0.515364057213147 0.1640747959768183 0  0.6963925938166915 0.1910556596611152 0  0.8125195838408641 0.3022218967510572 0  -0.3020285677296415 -0.812328389850081 0  -0.1893616883157803 -0.6970495392648226 0  -0.2502483843641028 0.1706127397495574 0  -0.9375000000001033 -1 0  -1 -0.8749999999996718 0  -0.956481481481584 -0.9375578703703495 0  -0.0625000000001663 -1 0  0 -0.9375000000001033 0  -0.05158188582444988 -0.9486549779657183 0  0 -0.0625000000001663 0  0.06249999999985208 0 0  -0.05309323949366743 -0.02232119322489249 0  0.03101200497025923 0.05109302348877867 0  -0.03210984734491375 0.06022646495858042 0  -0.08520308683858117 0.03790527173368793 0  0.9374999999998339 0 0  1 0.06249999999985208 0  0.9482961921907322 0.05193559548308688 0  1 0.9374999999998339 0  0.8750000000002472 1 0  0.9381140689300221 0.9557259516461076 0  -0.8749999999996718 1 0  -1 0.8750000000002472 0  -0.9062966101067991 0.9062966101069173 0  -0.8125000000003095 -1 0  -0.6875000000006422 -1 0  -0.7121233067563313 -0.9412330216293945 0  -0.7689814814818936 -0.9375578703703495 0  -0.5625000000011011 -1 0  -0.4375000000011642 -1 0  -0.5246233067570195 -0.9412330216293945 0  -0.4744323980413687 -0.9575092169593222 0  -0.1875000000004989 -1 0  -0.3125000000008316 -1 0  -0.2390818858249488 -0.9486549779657183 0  -0.2869323980408698 -0.9575092169593222 0  0 -0.8125000000003095 0  0 -0.6875000000006422 0  -0.05158188582444988 -0.7611549779660279 0  -0.04309895833344028 -0.7123697916670026 0  0 -0.5625000000011011 0  0 -0.4375000000011642 0  -0.0667937427131978 -0.4685190869735585 0  -0.04309895833344028 -0.5248697916676909 0  0 -0.1875000000004989 0  0 -0.3125000000008316 0  -0.0667937427131978 -0.2810190869730596 0  -0.05309323949366743 -0.2098211932253914 0  0.1874999999995562 0 0  0.3124999999992242 0 0  0.2814773478829636 0.06619957010586495 0  0.2185120049698155 0.05109302348877867 0  0.4374999999988559 0 0  0.5624999999988378 0 0  0.4689773478824112 0.06619957010586495 0  0.5249001047166173 0.0435922343474707 0  0.812499999999502 0 0  0.6874999999991698 0 0  0.7607961921902342 0.05193559548308688 0  0.7124001047171153 0.0435922343474707 0  1 0.1874999999995562 0  1 0.3124999999992242 0  0.9482961921907322 0.2394355954826431 0  0.9579635997296998 0.286675352891998 0  1 0.4374999999988559 0  1 0.5624999999988378 0  0.9416714891975084 0.5255835262335099 0  0.9579635997296998 0.4741753528914455 0  1 0.812499999999502 0  1 0.6874999999991698 0  0.9416714891975084 0.7130835262340079 0  0.9381140689300221 0.7682259516456096 0  0.6250000000007417 1 0  0.3750000000013982 1 0  0.4848684011666973 0.9115472856915361 0  0.5631140689307639 0.9557259516461076 0  0.3598684011671064 0.9115472856915361 0  0.1250000000022165 1 0  -0.1249999999977026 1 0  0.02713157992571266 0.8757791004079013 0  0.1098684011679248 0.9115472856915361 0  -0.05852864796168415 0.9110013215545679 0  -0.6249999999990155 1 0  -0.374999999998359 1 0  -0.4335286479626689 0.9110013215545679 0  -0.5312966101058145 0.9062966101069173 0  -1 0.6250000000007417 0  -1 0.3750000000013982 0  -0.9146676837694359 0.4319574930729526 0  -0.9062966101067991 0.5312966101076591 0  -1 0.1250000000022165 0  -1 -0.1249999999977026 0  -0.8796363302952357 -0.02734493595694122 0  -0.9116126543211007 -0.109711199292447 0  -0.9146676837694359 0.05695749307418016 0  -1 -0.6249999999990155 0  -1 -0.374999999998359 0  -0.9116126543211007 -0.3597111992931035 0  -0.9116126543211007 -0.4847111992934318 0  -0.956481481481584 -0.562557870369365 0  -0.4350526548931665 -0.6624679008262013 0  -0.3522230908503426 -0.5647539661693675 0  -0.4470420024582455 -0.5809460784912232 0  -0.3370112339615947 -0.6698898571625251 0  -0
[...]
<PointData  Scalars="f_1210"> 
<DataArray  type="Float64"  Name="f_1210"  format="ascii">6.2996052494743648e-01  1.2640451695757255e-16  -4.4312376854456729e-18  -3.1383879240222920e-18  6.2996052494743660e-01  1.2599210498948732e+00  4.8268149242530295e-01  3.2768940253688833e-01  1.6591319593268278e-01  9.6898280543914610e-17  7.9423517122263138e-17  5.3299847710064816e-17  -1.3754087753441199e-17  -6.6558834814015837e-19  5.0455313294086363e-19  1.6591319593185602e-01  3.2768940253520018e-01  4.8268149242465141e-01  7.2484120944575037e-01  8.6602540378356352e-01  1.0525306119814946e+00  1.0525306119824214e+00  8.6602540378531412e-01  7.2484120944628361e-01  2.8913445964784507e-01  5.1646685514407142e-01  2.8874626232500405e-01  5.0529533593748344e-01  6.5550598601055021e-01  2.3698686378069356e-01  4.2005479771358828e-01  4.2231615694773700e-01  2.3931985911424367e-01  5.1279692666116172e-01  5.1312147431880450e-01  2.6479583420560737e-01  2.4326157081496627e-01  5.6515471382791094e-01  5.6741467695488634e-01  7.4454050872978295e-01  7.5060950645162450e-01  9.2119102619696647e-01  1.4887452253555050e-01  1.4778381865956716e-01  4.1269362790396547e-01  4.9779551393751342e-01  1.3701899701892128e-01  2.7772236415479801e-01  2.7684118512036193e-01  1.3549539430054014e-01  5.5729165013801774e-01  6.7252751212967832e-01  5.9895208508893349e-01  8.3237463798988914e-02  1.0982452969102017e-16  7.1235836423490559e-02  3.9820403812302176e-17  -3.8512194111586394e-18  1.6681092272005890e-01  1.5324518685013405e-01  2.5998069447684413e-01  3.4793162646856286e-19  8.3237463798571512e-02  7.1742376683334511e-02  5.5729165013770054e-01  6.7252751212946116e-01  5.9787190768119114e-01  1.1552090045543342e+00  1.1552090045548129e+00  1.0971317792265078e+00  4.0612610455431031e-01  4.5188222134991157e-01  5.2352805985543172e-01  2.4752813818451599e-01  3.7216146734069749e-01  3.0319508791557082e-01  1.5696652469982594e-01  2.2042749109866083e-01  8.6788582363172258e-17  7.4863184716013831e-02  6.5439216066222938e-02  6.0058740163890316e-17  1.1657082832799986e-01  7.0022188299019253e-02  1.2963516402911679e-01  1.2463557612079561e-01  -4.9133348030275646e-18  1.2839275460157928e-01  1.1675388023796968e-01  2.0349207449395811e-18  1.1546958609735998e-01  7.0818113035189229e-02  7.5398359181944027e-02  6.6184392156691724e-02  2.4752813818324790e-01  1.5748954784608146e-01  2.2001445526714955e-01  4.0612610455315185e-01  3.7329670194773884e-01  3.0276740369980421e-01  4.5296717726422026e-01  5.2243264131824230e-01  7.8898824745230633e-01  6.2263887222667813e-01  6.4365037173137507e-01  9.5490144338432259e-01  6.9640545912799467e-01  6.8877377698405529e-01  8.0323519800837628e-01  9.0480068128000279e-01  9.8509059226775475e-01  9.5490144338574090e-01  9.0745527794386005e-01  9.8509059226825346e-01  7.8898824745337248e-01  7.0120847182133395e-01  6.8895060486361592e-01  8.0640729087065943e-01  6.2279553220208461e-01  6.4480174052928385e-01  3.5673333179579586e-01  2.6452975538388629e-01  4.0017421402652054e-01  2.1654727472312499e-01  2.8273994628174520e-01  2.1385029467851815e-01  3.7513923872916394e-01  5.1037210086494222e-01  4.0018130023814896e-01  6.3247028032685892e-01  5.0303839956500573e-01  2.6326077219807442e-01  3.5774706185417182e-01  3.9983365366064705e-01  2.1693182004042652e-01  2.1438469235815549e-01  2.8208719668203930e-01  3.6773224765560819e-01  5.0475985250136590e-01  3.8384395350532213e-01  6.2380213095795123e-01  4.5260521718121050e-01  6.9662528738072249e-01  7.0006694680589476e-01  7.9393863579220270e-01  5.3966614237427979e-01  5.7517616404775196e-01  3.8289699680764921e-01  2.3587506400951794e-01  1.8337577284573356e-01  4.6301595573137189e-01  4.9478442595797123e-01  3.4904323617416189e-01  4.6400261256775882e-01  4.9471979748858913e-01  3.4975853497941040e-01  3.8416043542159262e-01  2.4516488825500998e-01  1.8365284574608831e-01  5.3834017174415039e-01  5.3968971940595500e-01  3.1672519655381337e-01  3.8414418251463284e-01  3.1933622418500057e-01  8.3071831269606988e-01  5.9022823167146832e-01  8.3321980823860475e-01  6.3051594680874523e-01  1.4291930714931611e-01  2.1381653768798198e-01  2.1369813977193830e-01  1.4162225383285337e-01  4.4749805531718018e-01  5.9386649924082213e-01  6.5016537645922257e-01  6.1452431632360249e-01  4.1654628615081790e-02  1.1517781866818413e-16  3.4989804430305756e-02  2.1540550488080112e-17  -9.8101582780288423e-18  1.0508429644369451e-01  9.6538418353778507e-02  1.6377757476883184e-01  1.9952437108512047e-01  3.0444017315999154e-18  4.1654628614872721e-02  3.5234068709616657e-02  5.9386649924066526e-01  6.5016537645912453e-01  6.1399520842032640e-01  1.2074570265969253e+00  1.2074570265971660e+00  1.1799317903171069e+00  5.2023078325958105e-01  4.4464483945831057e-01  4.6740284308942703e-01  5.0273962757903501e-01  3.6713558469571261e-01  2.8781027066473241e-01  3.4951916788263360e-01  3.1555559655618148e-01  1.2467884545672636e-01  2.0688063170924265e-01  1.6146815665167982e-01  1.9282898659266878e-01  1.0936363560071061e-16  9.6860853300927425e-17  3.7650211830481090e-02  3.2162965224737709e-02  8.6750624003255846e-17  6.6252191182934883e-17  5.7247019774614723e-02  3.5602070626849149e-02  2.9074099673502913e-17  5.3647207455472454e-17  6.7704404971117238e-02  5.9290244913070299e-02  -2.3539388949440865e-18  2.5958419135988045e-18  6.7071343390994645e-02  5.6327347487346760e-02  7.4108096299196409e-18  3.8473027608330572e-18  5.6720937827234842e-02  3.6008440153324030e-02  -2.8112297797795529e-18  -2.7462228461165250e-18  3.7914157533117464e-02  3.2530413484508094e-02  1.2467884545610236e-01  2.0688063170819282e-01  1.6172472195700863e-01  1.9262907885980568e-01  2.8781027066325182e-01  3.6713558469429219e-01  3.5008641419907749e-01  3.1534471891869470e-01  5.2023078325909899e-01  4.4464483945740890e-01  4.6793516544703545e-01  5.0220071253355125e-01  6.9732577424491737e-01  7.5533045577737024e-01  6.7458004622703227e-01  6.8395350181812675e-01  7.0537350145410838e-01  8.2590414297054526e-01  9.0914160676917855e-01  7.8336563669206316e-01  7.7775183443680784e-01  8.3433994479514673e-01  1.1034518787984382e+00  1.0028585939609571e+00  9.8000530237583705e-01  1.0185040881689034e+00  1.1034518787991476e+00  1.0028585939621455e+00  9.8126372220976965e-01  1.0185040881696235e+00  9.0914160677078559e-01  8.2590414297193715e-01  7.8563203004598336e-01  7.7784166931724330e-01  8.3593453168422449e-01  6.9732577424527808e-01  7.5533045577815050e-01  7.0545486170017013e-01  6.7465698241156147e-01  6.8453272634450535e-01  3.2352860168035746e-01  2.7691999725847966e-01  3.4425687717995568e-01  2.5237759793039871e-01  2.8574056143091897e-01  2.5188363550685511e-01  6.1188756649590259e-01  6.0572066310489947e-01  4.4574422721083951e-01  5.1201161967504238e-01  4.6010024364054108e-01  5.7382369319926996e-01  5.0896514117092195e-01  2.7610901108532643e-01  3.2386373088567444e-01  3.4389652689636985e-01  2.5238352358847244e-01  2.5194792273383637e-01  2.8521479490227858e-01  6.0417311940209406e-01  6.0049747798988606e-01  4.3627898766924034e-01  5.0362477936932815e-01  4.4641644456206864e-01  5.6385169819402980e-01  4.7822499033705862e-01  6.7497776830945921e-01  6.7680436817652923e-01  7.2637266679886725e-01  5.9880652214678098e-01  6.1523056047154689e-01  6.2025579958828025e-01  1.8473813301306141e-01  1.7577358569854348e-01  2.5021087026962258e-01  3.0089545841011778e-01  3.1227438781113243e-01  2.3576665966317636e-01  2.0915714244906861e-01  4.3610489510978773e-01  3.9565984431979956e-01  3.8887332294961530e-01  4.4072713276921899e-01  4.5768117335715902e-01  3.8461061418725662e-01  4.7890947168866210e-01  3.9736094694476215e-01  4.3776522818009528e-01  3.9052737235678975e-01  4.4235824308251165e-01  4.5876326498667297e-01  3.8610643059875588e-01  4.7935390106311004e-01  1.7748442096631009e-01  1.8654704173905615e-01  2.5198255371518008e-01  3.0589422801148425e-01  3.1405780888859514e-01  2.4117292038891661e-01  2.1042947789856450e-01  5.6879947661724339e-01  6.0003848304534002e-01  4.5623821323956015e-01  5.0799536219034158e-01  4.4953797640128629e-01  4.8742506261405205e-01  5.2533988536472986e-01  6.0029515758016527e-01  5.6903871038556453e-01  4.5656702055585663e-01  5.1091053590140834e-01  4.8709261508126928e-01  4.5031569111313891e-01  5.2619373593931373e-01  2.1858414508931975e-01  1.9422790998540365e-01  3.3565312998314811e-01  2.5243091004765061e-01  2.8375673129592804e-01  3.2478301176318575e-01  2.0080800232071150e-01  1.7978262680427332e-01  3.1659614401583047e-01  2.3799604954121092e-01  2.7832597376964907e-01  6.1947717524479595e-01  5.8159092426275449e-01  5.4340805208743181e-01  6.0402349876844097e-01  5.3018305332725613e-01  5.5164729357215991e-01  6.2059253891151045e-01  5.8324693165059949e-01  5.4507735547970959e-01  6.0573623760855100e-01  5.3136159142202977e-01  5.5346414522611553e-01  7.7311380190366907e-01  8.2649404747769029e-01  6.8425393304852755e-01  7.1995902153234281e-01  7.8682921618859381e-01  6.6958291401380132e-01  8.3072851937080361e-01  7.7780126463327537e-01  6.9160208788761790e-01  7.2480760568638125e-01  7.9096979368704246e-01  6.9185523735618348e-01  1.0110785381795688e+00  9.5254934938467084e-01  9.5254934938492841e-01  8.5874400873664480e-01  8.7565648609230107e-01  8.7678965729266578e-01  1.0960090482041696e-01  1.1239903762059363e-01  1.5320648103678408e-01  1.8242451673777718e-01  1.4589405409930520e-01  1.8158129670809642e-01  1.0881258323404182e-01  1.5240589682629549e-01  1.1158758757414534e-01  1.8167819361377135e-01  1.8097186304750640e-01  1.4470242449764451e-01  3.4067108385532097e-01  4.2993813333223474e-01  4.7773705157176666e-01  3.6184717279879636e-01  3.6483619960648661e-01  5.0524899289064529e-01  4.2744503205620216e-01  5.6666117857566445e-01  4.9914429928180570e-01  5.3581860326791730e-01  4.4193178857845161e-01  5.6607281144134114e-01  4.7142273755110553e-01  1.2646363404433381e-01  1.0446938402773219e-01  1.0100550569403491e-01  1.7606611398625041e-01  1.5940497475086307e-01  1.3995765390224910e-01  2.9059057212919076e-01  2.4872258893680221e-01  2.8008148784015974e-01  3.1339760362601671e-01  2.4595042580877022e-01  2.4808259854421272e-01  2.8993964550569656e-01  2.7931070842574135e-01  3.1331966472778572e-01  2.4557106605224446e-01  9.9874039140201737e-02  1.2618460493372707e-01  1.0330117897700934e-01  1.7504472159769777e-01  1.5875157580858593e-01  1.3855014917393180e-01  5.7778707362610660e-01  5.4052772758625012e-01  6.3540817301178298e-01  6.5864044149197309e-01  5.6152497349093922e-01  7.7320227326710081e-02  1.1950447996173517e-01  3.5792650483287371e-02  3.6674554909035442e-02  1.1421904131852702e-01  7.2959987401695459e-02  7.8515492960182592e-02  6.6403865081252983e-02  7.3550335684361548e-02  6.2790019254621271e-02  1.4095305015786896e-01  2.4196100044866425e-01  2.0116921542231542e-01  1.3093386833454079e-01  2.4052906838589097e-01  2.8549294434683858e-01  2.8834274236319135e-01  3.6042822880207159e-02  3.6931247886483741e-02  7.7569164672922103e-02  1.1975752680246447e-01  7.3480076779346828e-02  1.1473449571313898e-01  5.7725442620014800e-01  5.3999178842089779e-01  6.3486264950004301e-01  6.5807805039580203e-01  5.6043690371487220e-01  1.1257262784297950e+00  1.0717972620453995e+00  1.1257262784300415e+00  1.0717972620458875e+00  1.0409290191952061e+00  1.0409290191954581e+00  4.2862727033874531e-01  3.8932877795582771e-01  4.8792063352649628e-01  4.1230694643972365e-01  4.7290350458045893e-01  5.0922885596616474e-01  2.7505518106598381e-01  2.3413203107922498e-01  3.3769270076419505e-01  3.6069479289484185e-01  2.6203328643308182e-01  3.2565733183626366e-01  1.8889169598019356e-01  1.8493814875259895e-01  2.1704748451226830e-01  3.3160835026073088e-02  3.4295102168581136e-02  7.0221826789006056e-02  1.0775037119261686e-01  6.7576925980844735e-02  1.0384728031351889e-01  6.0015936702336535e-02  6.3405536422952671e-02  9.2380228882936691e-02  1.2243954054419684e-01  1.5081511439704562e-01  1.2630349480679121e-01  1.8638860050162620e-01  1.8839281959865270e-01  6.2817069452783245e-02  5.9462026586323692e-02  1.2225944125168103e-01  1.2127518376987614e-01  1.8157560554110935e-01  1.7962210021281025e-01  3.4686703822219250e-02  3.3539596061580870e-02  9.2266214601970695e-02  1.5013691423046593e-01  6.8345843010067464e-02  7.0859056489003758e-02  1.0866310057447848e-01  1.0486643161175034e-01  2.3392791210859487e-01  2.7484741071853341e-01  1.8895060755979734e-01  1.8526638783778862e-01  2.6161231900513832e-01  2.1689466045168068e-01  3.8988420462912543e-01  4.2917102768699938e-01  3.3805131106074615e-01  4.1341676538726529e-01  3.6162336031232684e-01  3.2580107941617964e-01  4.8790232629260216e-01  4.7342481947592191e-01  5.0864019845740083e-01  7.3972183640932054e-01  6.3287426993826645e-01  6.5369275994886711e-01  5.8007346483155831e-01  5.9186195442499012e-01  8.8040018865975889e-01  9.2915222034366940e-01  6.9153414924548207e-01  7.4953940119938955e-01  6.5981783571633457e-01  5.9927572029453857e-01  8.5270225398226573e-01  7.1631420915690691e-01  9.4443742075944326e-01  8.6739086093653350e-01  9.0954222507667659e-01  9.3052256493522145e-01  8.8188464795777433e-01  9.4566749673505923e-01  8.5561529332489450e-01  8.6998518564990568e-01  9.1073153306692722e-01  7.3980758165978389e-01  6.9403112822573065e-01  7.5354331624027526e-01  6.6656253012103595e-01  6.5385950549705363e-01  6.0199658715773186e-01  7.2203578120395240e-01  6.3354197941755352e-01  5.8083277941158251e-01  5.9311104987069085e-01  3.7749459585953699e-01  3.1977913947672021e-01  4.0961044751192194e-01  3.5269935521148088e-01  3.3402633842931478e-01  2.3843177273157815e-01  3.2392466814751375e-01  2.2462421428605214e-01  4.3210519921258628e-01  3.9195889451101168e-01  2.4993414810383394e-01  2.1511597351330300e-01  2.1500290441970554e-01  1.7938240794736557e-01  3.1641754687519447e-01  2.4780570861566212e-01  1.9903826225695065e-01  1.7716438338168061e-01  4.4499287218577543e-01  3.8594066736015092e-01  3.7870319613910758e-01  3.1236588562655154e-01  4.4674800580568474e-01  4.5185755482845663e-01  3.2191021396080161e-01  3.9089800162868005e-01  5.6935551405458962e-01  6.3060597215734604e-01  4.4556966871137427e-01  3.3323232816264875e-01  2.3808749090518752e-01  3.2265956245587579e-01  2.2383756863236534e-01  3.7783888668876153e-01  3.1996680864939825e-01  4.1061639011346779e-01  3.5355905250109293e-01  3.9117586983665581e-01  4.3244830769260600e-01  2.1557511393309467e-01  2.4980214802744488e-01  1.8021757922901468e-01  2.1524968730057065e-01  1.9918232496249699e-01  1.7809120749603344e-01  3.1646798686144817e-01  2.4754578364928079e-01  4.3855450753531905e-01  3.7448164685432478e-01  3.7448127135168902e-01  3.0370040611981131e-01  4.4321566956850844e-01  4.1683125738549015e-01  3.0866074992013243e-01  3.5077202140458752e-01  5.4148454898983645e-01  6.0562336339616374e-01  3.8884294778249345e-01  5.2150355875198939e-01  7.4482460381721283e-01  7.6509259562774945e-01  6.4406704371295997e-01  7.4634742148825439e-01  6.3912732365105174e-01  7.6799565062408970e-01  6.6485911840313161e-01  8.1155441176074472e-01  8.1285557680420795e-01  5.5599168445395619e-01  5.6369981041031159e-01  4.9362705029372611e-01  6.0207240863569911e-01  5.1330519848213374e-01  5.0169983827382925e-01  5.1648661860201406e-01  5.0149709665606257e-01  5.1578192858278871e-01  3.4947609348319714e-01  3.8457214887835811e-01  4.1202414503046864e-01  6.1197319839558395e-01  6.3981013428492750e-01  6.2225953465873529e-01  2.0831826864521893e-02  1.1770667297028022e-16  1.7342769035335607e-02  1.2252431942246832e-17  -1.1972455713936646e-17  6.6198958551401843e-02  6.0815392703741533e-02  1.0317340697599142e-01  1.2569247754858950e-01  5.2189743970284303e-19  2.0831826864417011e-02  1.7462751668729699e-02  6.1197319839550646e-01  6.3981013428488065e-01  6.2199756968827991e-01  1.2336766335255942e+00  1.2336766335257148e+00  1.2202542207061102e+00  5.0151721424373019e-01  4.6372386426011181e-01  4.7507154323521084e-01  4.9262128094472135e-01  3.4746819467215251e-01  3.0780225950349621e-01  3.3850550860178913e-01  3.2164983775216971e-01  1.4532579182633676e-01  1.8643376309381338e-01  1.6369760316356943e-01  1.7928680847879613e-01  1.0404429128622975e-16  1.0292090673659926e-16  1.8876095124927848e-02  1.5945636059037475e-02  7.7959975298014609e-17  6.9866848512349171e-17  2.8342340563199377e-02  1.7950467512457071e-02  4.2883511797863895e-17  5.0350276937727391e-17  3.4600441560538209e-02  2.8860559303706148e-02  1.3915369096514918e-18  4.5038902361086048e-18  3.4283560937733236e-02  2.7603391262876961e-02  4.6684902507577564e-18  4.8188438620535331e-18  2.8085972392855704e-02  1.8155680587905079e-02  3.6532820779199015e-18  -2.1762520667338524e-18  1.9007014166256810e-02  1.6128001717596086e-02  1.4532579182561151e-01  1.8643376309287449e-01  1.6382471687917580e-01  1.7918846335218547e-01  3.0780225950191181e-01  3.4746819467059920e-01  3.3878888368893229e-01  3.2154511072222630e-01  5.0151721424316409e-01  4.6372386425933620e-01  4.7533530186733169e-01  4.9235402148179230e-01  7.1072684167780453e-01  7.3969998360531242e-01  6.9990853571667277e-01  7.0433030358692483e-01  7.1482407202082954e-01  8.4557358860736698e-01  8.8722821722226586e-01  8.2518381213931613e-01  8.2202241751460781e-01  8.5013005461050462e-01  1.0778624263725489e+00  1.0275102542690013e+00  1.0165802135918165e+00  1.0354549180619259e+00  1.0778624263733692e+00  1.0275102542700632e+00  1.0171944134552353e+00  1.0354549180627515e+00  8.8722821722395073e-01  8.4557358860893417e-01  8.2628807697588147e-01  8.2206747002611757e-01  8.5092747136826119e-01  7.1072684167824807e-01  7.3969998360596356e-01  7.1486323632783833e-01  6.9994666305361153e-01  7.0462056360224756e-01  3.0648881738328249e-01  2.8304982435662823e-01  3.1657693497992451e-01  2.7064327889494821e-01  2.8738477981934546e-01  2.7060690627308970e-01  5.6503192988009054e-01  5.6195468499649970e-01  4.8115734563113161e-01  5.1384243741741786e-01  4.8867762106133988e-01  5.4492781625700948e-01  5.1254460277208980e-01  2.8245416112267879e-01  3.0646832952089736e-01  3.1620364693698322e-01  2.7045396422001239e-01  2.7044273165609528e-01  2.8692635832190211e-01  5.5567162160384787e-01  5.5389834174551844e-01  4.7079778924283683e-01  5.0405821205847268e-01  4.7626889798820343e-01  5.3433658271686613e-01  4.9164275315985156e-01  6.6493865777935346e-01  6.6587752151571389e-01  6.9139287746238698e-01  6.2744095445828973e-01  6.3536416564710008e-01  6.3731905186596882e-01  2.1132386871891432e-01  2.0631098132304937e-01  2.4361779571892744e-01  2.6850999654262919e-01  2.7525753875269066e-01  2.3624165304073724e-01  2.2280118433577956e-01  4.2811500111236089e-01  4.0774289281577492e-01  4.0457786664330853e-01  4.3019953353510548e-01  4.3893296438971169e-01  4.0235074889176603e-01  4.4922453069228174e-01  4.0972506836602907e-01  4.3007243784225418e-01  4.0653940694441898e-01  4.3214773849702265e-01  4.4060066561888334e-01  4.0423133033171116e-01  4.5057663108276619e-01  2.0833281275750651e-01  2.1339979844779705e-01  2.4566169753725939e-01  2.7219912979628824e-01  2.7731281287529608e-01  2.4003024610225723e-01  2.2459588009287351e-01  5.4108729040082204e-01  5.5614486963371967e-01  4.8451689381596169e-01  5.1022790463502565e-01  4.8155690624469427e-01  4.9985720507554493e-01  5.1899960213007923e-01  5.5643725525424115e-01  5.4136885628575315e-01  4.8484268527799768e-01  5.1183363623538036e-01  4.9985345336580023e-01  4.8210417624767998e-01  5.1959337264757344e-01  2.4224222702471868e-01  2.2959252185632306e-01  3.0116374339334240e-01  2.5782926410769874e-01  2.7270830595508927e-01  2.9477716494392353e-01  2.2254211377809072e-01  2.1159556232504670e-01  2.8079861587652566e-01  2.4014052005379913e-01  2.6001499845500325e-01  5.9247863996969208e-01  5.7339196034136031e-01  5.5418339396672045e-01  5.8448970101714548e-01  5.4773008256589262e-01  5.5838132426102838e-01  5.9