<?xml version="1.0"?>
<VTKFile type="UnstructuredGrid"  version="0.1"  >
<UnstructuredGrid>
<Piece  NumberOfPoints="641" NumberOfCells="1184">
<Points>
<DataArray  type="Float64"  NumberOfComponents="3"  format="ascii">-1 -1 0  0 -1 0  0 0 0  1 0 0  1 1 0  -1 1 0  -0.7500000000004128 -1 0  -0.5000000000013305 -1 0  -0.2500000000006652 -1 0  0 -0.7500000000004128 0  0 -0.5000000000013305 0  0 -0.2500000000006652 0  0.2499999999994083 0 0  0.4999999999986718 0 0  0.7499999999993359 0 0  1 0.2499999999994083 0  1 0.4999999999986718 0  1 0.7499999999993359 0  0.500000000000989 1 0  2.625677453238495e-12 1 0  -0.4999999999986873 1 0  -1 0.500000000000989 0  -1 2.625677453238495e-12 0  -1 -0.4999999999986873 0  -0.3805724641828597 -0.6283131722624091 0  -0.5185453211809429 -0.1093797438356419 0  0.6282560163404198 0.3800278499035458 0  0.1085263196949736 0.5031164016316051 0  -0.3817550489055893 0.3687580659877924 0  0.3759093915336295 0.2647982804234598 0  -0.5984932270240866 -0.7649320865175777 0  0.7666859567900337 0.6023341049380243 0  -0.2671749708527912 -0.3740763478902425 0  0.439473604663822 0.6461891427661444 0  -0.6464506172844028 -0.4388447971776652 0  -0.2123729579746697 -0.08928477289956997 0  0.1240480198810369 0.2043720939551147 0  0.7524562757200886 0.8229038065844307 0  -0.825925925926336 -0.7502314814813982 0  -0.2341145918546136 0.6440052862182717 0  -0.6586707350777433 0.2278299722888436 0  -0.6251864404271965 0.6251864404276692 0  0.7931847687629292 0.2077423819323475 0  -0.2063275432977995 -0.7946199118628733 0  -0.128439389379655 0.2409058598343217 0  -0.3720573793485507 0.1003196196647931 0  0.5996004188704538 0.1743689373898828 0  -0.3977295921614834 -0.8300368678372887 0  0.831854398918799 0.3967014115697668 0  -0.1723958333337611 -0.599479166666772 0  -0.8750000000002064 -1 0  -1 -0.7499999999993436 0  -0.9129629629631679 -0.8751157407406991 0  -0.1250000000003326 -1 0  0 -0.8750000000002064 0  -0.1031637716488998 -0.8973099559314366 0  0 -0.1250000000003326 0  0.1249999999997042 0 0  -0.1061864789873349 -0.04464238644978499 0  0.06202400994051845 0.1021860469775573 0  -0.06421969468982749 0.1204529299171608 0  0.8749999999996679 0 0  1 0.1249999999997042 0  0.8965923843814646 0.1038711909661738 0  1 0.8749999999996679 0  0.7500000000004945 1 0  0.8762281378600443 0.9114519032922154 0  -0.7499999999993436 1 0  -1 0.7500000000004945 0  -0.8125932202135983 0.8125932202138346 0  -0.6250000000008716 -1 0  -0.6742466135122497 -0.8824660432587889 0  -0.7879629629633744 -0.8751157407406991 0  -0.3750000000009979 -1 0  -0.5492466135127085 -0.8824660432587889 0  -0.4488647960814069 -0.9150184339186443 0  -0.2281637716492323 -0.8973099559314366 0  -0.3238647960810743 -0.9150184339186443 0  0 -0.6250000000008716 0  -0.1031637716488998 -0.7723099559316431 0  -0.08619791666688055 -0.6747395833335924 0  0 -0.3750000000009979 0  -0.1335874854263956 -0.4370381739457865 0  -0.08619791666688055 -0.5497395833340513 0  -0.1335874854263956 -0.3120381739454539 0  -0.1061864789873349 -0.1696423864501176 0  0.37499999999904 0 0  0.3129546957665189 0.1323991402117299 0  0.1870240099402226 0.1021860469775573 0  0.6249999999990038 0 0  0.4379546957661506 0.1323991402117299 0  0.5498002094345628 0.0871844686949414 0  0.7715923843811325 0.1038711909661738 0  0.6748002094348948 0.0871844686949414 0  1 0.37499999999904 0  0.8965923843814646 0.2288711909658779 0  0.9159271994593995 0.3233507057845876 0  1 0.6249999999990038 0  0.8833429783950169 0.5511670524683481 0  0.9159271994593995 0.4483507057842193 0  0.8833429783950169 0.67616705246868 0  0.8762281378600443 0.7864519032918833 0  0.2500000000018073 1 0  0.4697368023324055 0.8230945713830722 0  0.6262281378605388 0.9114519032922154 0  -0.2499999999980308 1 0  0.05426315984879964 0.7515582008158026 0  0.2197368023332238 0.8230945713830722 0  -0.117057295925994 0.8220026431091358 0  -0.3670572959266504 0.8220026431091358 0  -0.5625932202129419 0.8125932202138346 0  -1 0.2500000000018073 0  -0.8293353675388717 0.3639149861449163 0  -0.8125932202135983 0.5625932202143291 0  -1 -0.2499999999980308 0  -0.7592726605904714 -0.05468987191650811 0  -0.8232253086422014 -0.2194223985875198 0  -0.8293353675388717 0.1139149861457346 0  -0.8232253086422014 -0.4694223985881762 0  -0.9129629629631679 -0.6251157407400427 0  -0.4895328456034732 -0.6966226293899934 0  -0.3238737175178255 -0.5011947600763258 0  -0.5135115407336313 -0.5335789847200372 0  -0.2934500037403296 -0.7114665420626411 0  -0.3891510281721716 -0.7291750200498489 0  -0.2764841487583104 -0.6138961694645906 0  -0.392860146016867 -0.2417280458629422 0  -0.5824979692326728 -0.2741122705066535 0  -0.3654591395778063 -0.09933225836760594 0  -0.5886080281293431 0.05922511422660085 0  -0.4453013502647468 -0.004530062085424405 0  0.5020827039370247 0.3224130651635028 0  0.6974709865652268 0.491180977420785 0  0.5338648105021209 0.5131084963348451 0  0.7107203925516745 0.2938851159179466 0  0.6139282176054368 0.2771983936467143 0  0.7300552076296094 0.3883646307366563 0  0.2422178556143016 0.3839573410275324 0  0.2739999621793978 0.5746527721988748 0  0.1162871697880053 0.3537442477933599 0  -0.06279413607982001 0.5735608439249384 0  -0.009956534842340693 0.3720111307329634 0  -0.3079348203801014 0.5063816761030321 0  -0.5202128919916663 0.298294019138318 0  -0.5034707446663929 0.4969722532077309 0  -0.2550972191426222 0.3048319629110571 0  -0.37690621412707 0.2345388428262928 0  0.4076914980987257 0.4554937115948021 0  0.2499787057073332 0.2345851871892873 0  0.4877549052020417 0.2195836089066713 0  -0.6224719221542447 -0.6018884418476215 0  -0.7122095764752112 -0.7575817839994879 0  -0.498111409592785 -0.7974844771774332 0  0.6030797807269279 0.6242616238520844 0  0.7595711162550611 0.7126189557612275 0  0.7992701778544163 0.4995177582538955 0  -0.456812794068597 -0.4064605725339538 0  -0.2397739644137304 -0.2316805603949063 0  -0.2197854020932761 -0.4867777572785073 0  0.5959649401919553 0.7345464746752876 0  -0.7361882716053694 -0.5945381393295317 0  -0.1704061736771623 0.07581054346737587 0  -0.2922151686616102 0.005517423382611561 0  -0.002195684749309042 0.2226389768947182 0  -0.429650516140905 0.6345958633229705 0  -0.1812769906171343 0.4424555730262967 0  -0.6419285877524699 0.4265082063582564 0  -0.515364057213147 0.1640747959768183 0  0.6963925938166915 0.1910556596611152 0  0.8125195838408641 0.3022218967510572 0  -0.3020285677296415 -0.812328389850081 0  -0.1893616883157803 -0.6970495392648226 0  -0.2502483843641028 0.1706127397495574 0  -0.9375000000001033 -1 0  -1 -0.8749999999996718 0  -0.956481481481584 -0.9375578703703495 0  -0.0625000000001663 -1 0  0 -0.9375000000001033 0  -0.05158188582444988 -0.9486549779657183 0  0 -0.0625000000001663 0  0.06249999999985208 0 0  -0.05309323949366743 -0.02232119322489249 0  0.03101200497025923 0.05109302348877867 0  -0.03210984734491375 0.06022646495858042 0  -0.08520308683858117 0.03790527173368793 0  0.9374999999998339 0 0  1 0.06249999999985208 0  0.9482961921907322 0.05193559548308688 0  1 0.9374999999998339 0  0.8750000000002472 1 0  0.9381140689300221 0.9557259516461076 0  -0.8749999999996718 1 0  -1 0.8750000000002472 0  -0.9062966101067991 0.9062966101069173 0  -0.8125000000003095 -1 0  -0.6875000000006422 -1 0  -0.7121233067563313 -0.9412330216293945 0  -0.7689814814818936 -0.9375578703703495 0  -0.5625000000011011 -1 0  -0.4375000000011642 -1 0  -0.5246233067570195 -0.9412330216293945 0  -0.4744323980413687 -0.9575092169593222 0  -0.1875000000004989 -1 0  -0.3125000000008316 -1 0  -0.2390818858249488 -0.9486549779657183 0  -0.2869323980408698 -0.9575092169593222 0  0 -0.8125000000003095 0  0 -0.6875000000006422 0  -0.05158188582444988 -0.7611549779660279 0  -0.04309895833344028 -0.7123697916670026 0  0 -0.5625000000011011 0  0 -0.4375000000011642 0  -0.0667937427131978 -0.4685190869735585 0  -0.04309895833344028 -0.5248697916676909 0  0 -0.1875000000004989 0  0 -0.3125000000008316 0  -0.0667937427131978 -0.2810190869730596 0  -0.05309323949366743 -0.2098211932253914 0  0.1874999999995562 0 0  0.3124999999992242 0 0  0.2814773478829636 0.06619957010586495 0  0.2185120049698155 0.05109302348877867 0  0.4374999999988559 0 0  0.5624999999988378 0 0  0.4689773478824112 0.06619957010586495 0  0.5249001047166173 0.0435922343474707 0  0.812499999999502 0 0  0.6874999999991698 0 0  0.7607961921902342 0.05193559548308688 0  0.7124001047171153 0.0435922343474707 0  1 0.1874999999995562 0  1 0.3124999999992242 0  0.9482961921907322 0.2394355954826431 0  0.9579635997296998 0.286675352891998 0  1 0.4374999999988559 0  1 0.5624999999988378 0  0.9416714891975084 0.5255835262335099 0  0.9579635997296998 0.4741753528914455 0  1 0.812499999999502 0  1 0.6874999999991698 0  0.9416714891975084 0.7130835262340079 0  0.9381140689300221 0.7682259516456096 0  0.6250000000007417 1 0  0.3750000000013982 1 0  0.4848684011666973 0.9115472856915361 0  0.5631140689307639 0.9557259516461076 0  0.3598684011671064 0.9115472856915361 0  0.1250000000022165 1 0  -0.1249999999977026 1 0  0.02713157992571266 0.8757791004079013 0  0.1098684011679248 0.9115472856915361 0  -0.05852864796168415 0.9110013215545679 0  -0.6249999999990155 1 0  -0.374999999998359 1 0  -0.4335286479626689 0.9110013215545679 0  -0.5312966101058145 0.9062966101069173 0  -1 0.6250000000007417 0  -1 0.3750000000013982 0  -0.9146676837694359 0.4319574930729526 0  -0.9062966101067991 0.5312966101076591 0  -1 0.1250000000022165 0  -1 -0.1249999999977026 0  -0.8796363302952357 -0.02734493595694122 0  -0.9116126543211007 -0.109711199292447 0  -0.9146676837694359 0.05695749307418016 0  -1 -0.6249999999990155 0  -1 -0.374999999998359 0  -0.9116126543211007 -0.3597111992931035 0  -0.9116126543211007 -0.4847111992934318 0  -0.956481481481584 -0.562557870369365 0  -0.4350526548931665 -0.6624679008262013 0  -0.3522230908503426 -0.5647539661693675 0  -0.4470420024582455 -0.5809460784912232 0  -0.3370112339615947 -0.6698898571625251 0  -0.
[...]
<PointData  Scalars="f_816-1"> 
<DataArray  type="Float64"  Name="f_816-1"  format="ascii">0.0000000000000000e+00  0.0000000000000000e+00  0.0000000000000000e+00  0.0000000000000000e+00  0.0000000000000000e+00  0.0000000000000000e+00  0.0000000000000000e+00  0.0000000000000000e+00  0.0000000000000000e+00  0.0000000000000000e+00  0.0000000000000000e+00  0.0000000000000000e+00  0.0000000000000000e+00  0.0000000000000000e+00  0.0000000000000000e+00  0.0000000000000000e+00  0.0000000000000000e+00  0.0000000000000000e+00  0.0000000000000000e+00  0.0000000000000000e+00  0.0000000000000000e+00  0.0000000000000000e+00  0.0000000000000000e+00  0.0000000000000000e+00  7.7653499612375165e-02  1.1245027482652017e-01  7.7629581203884260e-02  1.1276085323402238e-01  1.2587059966632733e-01  8.0262296609838593e-02  5.9922032915339735e-02  5.9462074700437177e-02  8.0764638149147069e-02  9.0549063592458512e-02  9.0544950359471854e-02  8.0327146779384476e-02  7.6309781130225213e-02  4.0067466595920684e-02  3.9792946427607362e-02  1.0720325060786186e-01  1.0488530730584374e-01  8.9431397830066026e-02  3.9673222904469042e-02  3.9311098025099737e-02  1.0637622123523000e-01  1.1748756197852042e-01  5.0939209943616962e-02  4.7196138428092609e-02  4.6779776975129535e-02  5.0508010079809429e-02  0.0000000000000000e+00  0.0000000000000000e+00  1.4697359889388700e-02  0.0000000000000000e+00  0.0000000000000000e+00  1.4490100778824953e-02  0.0000000000000000e+00  0.0000000000000000e+00  5.1270549803729283e-02  4.8058383626159364e-02  7.3463078519358141e-02  0.0000000000000000e+00  0.0000000000000000e+00  1.4645150249467585e-02  0.0000000000000000e+00  0.0000000000000000e+00  1.4808052122272078e-02  0.0000000000000000e+00  0.0000000000000000e+00  3.7648371189736268e-02  0.0000000000000000e+00  3.2884665312275262e-02  2.7792310865034243e-02  0.0000000000000000e+00  3.6032001604378500e-02  2.7222782210905617e-02  2.4690462826937525e-02  2.4853891388582017e-02  0.0000000000000000e+00  2.5038501072394623e-02  2.6020906086822542e-02  0.0000000000000000e+00  4.6927029332400789e-02  2.9875952646736620e-02  4.9802793798218330e-02  4.3978449439017402e-02  0.0000000000000000e+00  4.9424653060965662e-02  4.2071877221667948e-02  0.0000000000000000e+00  4.6565711495467982e-02  3.0180009445351617e-02  2.5228840411513739e-02  2.6280168655910967e-02  0.0000000000000000e+00  2.4877978458834989e-02  2.4607796728376038e-02  0.0000000000000000e+00  3.5788169768261442e-02  2.6963227849652573e-02  3.2605956984919970e-02  2.7714399307379383e-02  0.0000000000000000e+00  5.7759698612385939e-02  2.8498880466118665e-02  0.0000000000000000e+00  8.4745311721287381e-02  6.4110382399350088e-02  6.7581052213573495e-02  6.5657569052413461e-02  6.1071910844406503e-02  0.0000000000000000e+00  6.3566504763897941e-02  6.1071045851385154e-02  0.0000000000000000e+00  8.2955654572963652e-02  6.4071731320261824e-02  6.5367837462602996e-02  5.7733491980852009e-02  2.8107327961283995e-02  7.2979092875924134e-02  8.2995916061560121e-02  9.1384985201986305e-02  6.0058005386380960e-02  6.5101421872651846e-02  6.8118987480249235e-02  1.0343861715323494e-01  1.0391151263678373e-01  1.0661240306167798e-01  1.1271205987839682e-01  1.1597810454415816e-01  8.2764469051525263e-02  7.2871602961366494e-02  9.1374881944422920e-02  6.0202811416277119e-02  6.8224322087849079e-02  6.4931582807446722e-02  1.0262334978788125e-01  1.0444069365110242e-01  1.0456014986882813e-01  1.1416473680316493e-01  1.1262383358244880e-01  1.2168488889310289e-01  1.2077023139859024e-01  1.1462357826732004e-01  1.2223129132575428e-01  1.2392689613746549e-01  9.9535209802799354e-02  7.8552931902133472e-02  6.6430679524837194e-02  8.0336500111066203e-02  5.3442118790176574e-02  5.5711103327823322e-02  8.0089623219397402e-02  5.3120027462952225e-02  5.5358464070199377e-02  9.9635885762547491e-02  8.0331218172695062e-02  6.6509204022734678e-02  6.8220452765954939e-02  6.8076362329527323e-02  8.7358803029693746e-02  1.0297432275380201e-01  8.9967843549238216e-02  1.0409271978757177e-01  1.2273840568757309e-01  1.0312276389922288e-01  1.2015363459283865e-01  4.7435251800581349e-02  4.5750295321924574e-02  4.5766507062331312e-02  4.7078755235941613e-02  1.1175291302099237e-01  0.0000000000000000e+00  0.0000000000000000e+00  4.8413172857220020e-03  0.0000000000000000e+00  0.0000000000000000e+00  4.8040083274618018e-03  0.0000000000000000e+00  0.0000000000000000e+00  3.1592546485504289e-02  2.9312439313350501e-02  4.7403845137638921e-02  5.7254751827974938e-02  0.0000000000000000e+00  0.0000000000000000e+00  4.8592687523652117e-03  0.0000000000000000e+00  0.0000000000000000e+00  4.8788486703819451e-03  0.0000000000000000e+00  0.0000000000000000e+00  1.3309053588028055e-02  0.0000000000000000e+00  0.0000000000000000e+00  1.7057082940444689e-02  1.6199699614689016e-02  0.0000000000000000e+00  0.0000000000000000e+00  1.9639356848595427e-02  1.4518807458782744e-02  0.0000000000000000e+00  0.0000000000000000e+00  1.3790113228106204e-02  1.2612204713636398e-02  0.0000000000000000e+00  0.0000000000000000e+00  1.4036774068254394e-02  1.3088128791226051e-02  0.0000000000000000e+00  0.0000000000000000e+00  2.5120468082039844e-02  1.6115431633012781e-02  0.0000000000000000e+00  0.0000000000000000e+00  2.7394456686820647e-02  2.2878634616330887e-02  0.0000000000000000e+00  0.0000000000000000e+00  2.7170532701323163e-02  2.1972631500973706e-02  0.0000000000000000e+00  0.0000000000000000e+00  2.4912712491421841e-02  1.6291127779038857e-02  0.0000000000000000e+00  0.0000000000000000e+00  1.4137242102937079e-02  1.3228216325873340e-02  0.0000000000000000e+00  0.0000000000000000e+00  1.3889408524786404e-02  1.2482239531652778e-02  0.0000000000000000e+00  0.0000000000000000e+00  1.9503405867106676e-02  1.4372978562204153e-02  0.0000000000000000e+00  0.0000000000000000e+00  1.6917526717483099e-02  1.6098877630800222e-02  0.0000000000000000e+00  0.0000000000000000e+00  3.2191059723625279e-02  1.6120996718433232e-02  3.4277655148278158e-02  0.0000000000000000e+00  0.0000000000000000e+00  4.9786724333005954e-02  3.6572482599383442e-02  3.7456105259684826e-02  0.0000000000000000e+00  0.0000000000000000e+00  3.5569017969683488e-02  3.5192469701565240e-02  0.0000000000000000e+00  0.0000000000000000e+00  3.4272886903960020e-02  3.5191728764495167e-02  0.0000000000000000e+00  0.0000000000000000e+00  4.8458243901182439e-02  3.6545077938967052e-02  3.6058163519357693e-02  0.0000000000000000e+00  0.0000000000000000e+00  3.4254000867535613e-02  3.2170457042459959e-02  1.5867957021319108e-02  7.6522995143777917e-02  8.1396135073724840e-02  8.6121919331886981e-02  6.9394866958215548e-02  7.1950708797700713e-02  7.3823760426576512e-02  1.0413826611157397e-01  9.7781771264856376e-02  1.0982321996017644e-01  1.0865918231573969e-01  1.1198891081347730e-01  1.1350046789541722e-01  1.1458277193855512e-01  8.1272757658377909e-02  7.6500452432468502e-02  8.6104528629307286e-02  6.9444486561411750e-02  7.3842402234486570e-02  7.1863582371743923e-02  1.0558129376843813e-01  9.8934923116746731e-02  1.0938102404113825e-01  1.0916480263073954e-01  1.1106437257844079e-01  1.1439698882428719e-01  1.1397279741758325e-01  1.2481201356458223e-01  1.2441369118543455e-01  1.2227726603298533e-01  1.2553302922852025e-01  1.2566027298182453e-01  1.2529911278374431e-01  6.7039559908976282e-02  6.5016628895960632e-02  8.2348178610176209e-02  9.2814236259772934e-02  9.3592431282184890e-02  7.9649225532485921e-02  7.3565558769390554e-02  4.7249200359626223e-02  4.9386045822529041e-02  6.7331295031998098e-02  7.1734960469359274e-02  5.7480109924197095e-02  5.8449963726893997e-02  6.7978691421079970e-02  4.9040594400533259e-02  4.6856711867693149e-02  6.7071091959637327e-02  7.1381010408464202e-02  5.7039799826590638e-02  5.8070619476879810e-02  6.7691628241373827e-02  6.5476940874306069e-02  6.7508217494183217e-02  8.2703764884870579e-02  9.3638503050553185e-02  9.3854457507344530e-02  8.0762240431032056e-02  7.3870167202452042e-02  7.7126827365521358e-02  8.2211099646325628e-02  9.2984025759401415e-02  9.8301335361163505e-02  9.8451793574495045e-02  8.6289958191764035e-02  8.0305676639551613e-02  8.2179418053866207e-02  7.7107224219014184e-02  9.2986673697467867e-02  9.7942146889218207e-02  8.6419743563227305e-02  9.8464216249017092e-02  8.0239208895532002e-02  6.7219444393439062e-02  6.3272257004322013e-02  9.6169979780007103e-02  7.9950427223804285e-02  8.1780149543726879e-02  9.2521075348095325e-02  6.3481856020022001e-02  6.0261336595072094e-02  9.3079033954343790e-02  7.7290138318545795e-02  8.2540738448674739e-02  2.3243507080637375e-02  2.6986351105389311e-02  3.5488678310760316e-02  3.6652835098050313e-02  4.7529460321245054e-02  5.4626978204963900e-02  2.2959584896943851e-02  2.6791713723065165e-02  3.5435119167028205e-02  3.6250326353522641e-02  4.7619881016983424e-02  5.4406463272511391e-02  9.0672269572410286e-02  8.9725308441607185e-02  1.1182363848977006e-01  1.1597263893333325e-01  1.0669689212356902e-01  1.1889133815576544e-01  8.7297182811317639e-02  8.8178015969106280e-02  1.0988666719781919e-01  1.1441710233540071e-01  1.0506012653855232e-01  1.1468288414013050e-01  6.4503377942701612e-02  7.8737188203797895e-02  7.8736592649973389e-02  1.0347193576620177e-01  9.8623737817688961e-02  9.8233015372699600e-02  2.6721310689684002e-02  3.3623898977218167e-02  3.3347731686634755e-02  5.0170903841322251e-02  4.4183015885734263e-02  4.3434705926824725e-02  2.6457600103795123e-02  3.3074596578682239e-02  3.3347650337456750e-02  4.9918192801586200e-02  4.3258362641190817e-02  4.3836577547319816e-02  9.2506318803277532e-02  1.0961783595935452e-01  1.1586324665985681e-01  9.6577502333273599e-02  9.8192108912065243e-02  1.1866822732133675e-01  1.0859862302357459e-01  1.1921592398388645e-01  1.1686123388070435e-01  1.2105871071601616e-01  1.1135000244343268e-01  1.2116224457053074e-01  1.1501089286130785e-01  4.9742563095321796e-02  4.1708738306696441e-02  3.8922361260078607e-02  6.0639871843813753e-02  5.8871446477891082e-02  4.9630475722187810e-02  3.8112234440661544e-02  3.6462745646918156e-02  5.6918756448098080e-02  5.1898578842596875e-02  4.7024622880638182e-02  3.6119644618180895e-02  3.7764634473842984e-02  5.6641275046351282e-02  5.1530178750599759e-02  4.6809874640346499e-02  3.8565526507398612e-02  4.9655127230296588e-02  4.1320777984018044e-02  6.0398949382736905e-02  5.8701677920540866e-02  4.9244169354087597e-02  9.8866112335946974e-03  1.3512243957507863e-02  1.0479044985134949e-02  1.3780311483827362e-02  2.2150103441999990e-02  8.7791345781490504e-03  1.1657593031157116e-02  8.8193587594792341e-03  1.1771562662975342e-02  2.0314273442310786e-02  2.0433698073867017e-02  2.5860301668065720e-02  2.3881526712222278e-02  2.4595537207008272e-02  2.2873949645099461e-02  4.6473862846835502e-02  6.9992090635299778e-02  5.9117035026474758e-02  4.4156998881621612e-02  7.1512087914494274e-02  7.9509804337524276e-02  8.1566902405889125e-02  8.8924874585577310e-03  1.1859792373490500e-02  8.8525187980012660e-03  1.1745732786058217e-02  2.0607310435061806e-02  2.0487307358710030e-02  9.8624345566522883e-03  1.3444175571616675e-02  1.0627740474041169e-02  1.3993054081491069e-02  2.2154930573275250e-02  2.4184878562515142e-02  3.0971044304156072e-02  2.4184818921632677e-02  3.0970786957376130e-02  5.1972366417835772e-02  5.1972105210195976e-02  1.8403081584062685e-02  1.9251250892080907e-02  3.0923281650179740e-02  3.4920117343859407e-02  4.4791383522796116e-02  4.0927126227481896e-02  1.4224100053236904e-02  1.3598195269544724e-02  3.1972415702093152e-02  4.6552047150325612e-02  2.6375287675609004e-02  4.2725625728332911e-02  2.5257430920642737e-02  3.5364857965931390e-02  3.6430664097070187e-02  1.4329517140068936e-02  1.5319731451091802e-02  2.5989351424069378e-02  3.6142374789664214e-02  2.8160047946748083e-02  3.7816563058446398e-02  2.5962431819071458e-02  2.6693026055975455e-02  3.8480709915572044e-02  4.8442123246679271e-02  5.7731476878991855e-02  4.6917515824327120e-02  6.6093349944505761e-02  6.4477694868268112e-02  2.6474539640989073e-02  2.5749026913977787e-02  4.5866592164137895e-02  4.8072732975913919e-02  6.4981758996072364e-02  6.2598330605120434e-02  1.5485978861368403e-02  1.4484104351248670e-02  3.8443313892514520e-02  5.7533437590892592e-02  2.8444044617228104e-02  2.6205512074290203e-02  3.6425785598142718e-02  3.8128638813424126e-02  1.3459382025206239e-02  1.4080082679735494e-02  2.5241453146389738e-02  3.5448529543801954e-02  2.6119200147129221e-02  3.6307930498023770e-02  1.9111199394265265e-02  1.8261943455532208e-02  3.1731846196108464e-02  3.4656681459389195e-02  4.6240590649862114e-02  4.2409700669792667e-02  3.0707150108768604e-02  4.4453020238644059e-02  4.0730948759624346e-02  3.5651287341868038e-02  4.3444916074567123e-02  6.1567081990087084e-02  6.4711968278340623e-02  5.1038400776766558e-02  3.7504633191247014e-02  3.6972320782911371e-02  7.4957829858606148e-02  7.7039378267575398e-02  1.0251679296958299e-01  9.1169754491993077e-02  6.7303905035206599e-02  9.7559247737333668e-02  6.4293835407545658e-02  8.8386211435992651e-02  8.4959321168021573e-02  3.5607009369091003e-02  3.6109924889595871e-02  6.3338382970854978e-02  6.5118556702431843e-02  8.6893253263688908e-02  8.4307685125006096e-02  3.5625686321340583e-02  7.3948113357257247e-02  7.5017760246785914e-02  1.0067290092010625e-01  6.1533592571126471e-02  9.0486655574928215e-02  9.5359219101450246e-02  4.3247957554254694e-02  6.4577999922492885e-02  5.0772462792294693e-02  8.3440204591378103e-02  6.9656528905886861e-02  7.8551940613719395e-02  6.5038817159549858e-02  9.0444072709172291e-02  7.5928023728121949e-02  9.2955646733991551e-02  7.5851141841657102e-02  8.6899857075495870e-02  9.6261718451858019e-02  6.3281251516711434e-02  6.4628747330756395e-02  5.3612494796092279e-02  5.4535905204238060e-02  6.1513271289436254e-02  5.5894085641282426e-02  6.8406317594878724e-02  5.7969675798188153e-02  1.0735387644770802e-01  1.0499656641861239e-01  1.0232417547097480e-01  9.4444132888900495e-02  1.0368789156548837e-01  1.1216121416047843e-01  9.5122388046490772e-02  1.0487186169812676e-01  1.1671114704596974e-01  1.1683797989286318e-01  1.1183113559641700e-01  9.0356474451108629e-02  7.5852734210945280e-02  9.2788829445908896e-02  7.5670532356347603e-02  8.3385670703755521e-02  6.9545744837897716e-02  7.8379831661793048e-02  6.4823513508288910e-02  9.6211354002015526e-02  8.6810056389825169e-02  6.4743641477644054e-02  6.3264372926824075e-02  5.4763173975153477e-02  5.3686671695472338e-02  6.8427381179520810e-02  5.8194619789134913e-02  6.1289198143844897e-02  5.5790972002529096e-02  1.0725849417186810e-01  1.0360205721881952e-01  1.0198299076397511e-01  9.2999909348496376e-02  1.0373793850307580e-01  1.0854134791284430e-01  9.2966695548963363e-02  9.8188776056141791e-02  1.1784593487345223e-01  1.1962058208706837e-01  1.0379597830257109e-01  1.1899811259964869e-01  1.1984038331996175e-01  1.1479710541648831e-01  1.2328485340405036e-01  1.1936344413893785e-01  1.2437912854229850e-01  1.1377788482326602e-01  1.2090504450692123e-01  1.1092523731635717e-01  1.1045236826230609e-01  1.2341107016080242e-01  1.2325370014100595e-01  1.1779375135197521e-01  1.2318379351327040e-01  1.1973929818472877e-01  7.5328790360603068e-02  6.2258763549584366e-02  7.5208990457162797e-02  6.2158452446891818e-02  9.5514922326039406e-02  1.0126639972203229e-01  1.0661768929633966e-01  </DataArray> 
</PointData> 
</Piece>
</UnstructuredGrid>
</VTKFile>