<?xml version="1.0"?>
<VTKFile type="UnstructuredGrid"  version="0.1"  >
<UnstructuredGrid>
<Piece  NumberOfPoints="2465" NumberOfCells="4736">
<Points>
<DataArray  type="Float64"  NumberOfComponents="3"  format="ascii">-1 -1 0  0 -1 0  0 0 0  1 0 0  1 1 0  -1 1 0  -0.7500000000004128 -1 0  -0.5000000000013305 -1 0  -0.2500000000006652 -1 0  0 -0.7500000000004128 0  0 -0.5000000000013305 0  0 -0.2500000000006652 0  0.2499999999994083 0 0  0.4999999999986718 0 0  0.7499999999993359 0 0  1 0.2499999999994083 0  1 0.4999999999986718 0  1 0.7499999999993359 0  0.500000000000989 1 0  2.625677453238495e-12 1 0  -0.4999999999986873 1 0  -1 0.500000000000989 0  -1 2.625677453238495e-12 0  -1 -0.4999999999986873 0  -0.3805724641828597 -0.6283131722624091 0  -0.5185453211809429 -0.1093797438356419 0  0.6282560163404198 0.3800278499035458 0  0.1085263196949736 0.5031164016316051 0  -0.3817550489055893 0.3687580659877924 0  0.3759093915336295 0.2647982804234598 0  -0.5984932270240866 -0.7649320865175777 0  0.7666859567900337 0.6023341049380243 0  -0.2671749708527912 -0.3740763478902425 0  0.439473604663822 0.6461891427661444 0  -0.6464506172844028 -0.4388447971776652 0  -0.2123729579746697 -0.08928477289956997 0  0.1240480198810369 0.2043720939551147 0  0.7524562757200886 0.8229038065844307 0  -0.825925925926336 -0.7502314814813982 0  -0.2341145918546136 0.6440052862182717 0  -0.6586707350777433 0.2278299722888436 0  -0.6251864404271965 0.6251864404276692 0  0.7931847687629292 0.2077423819323475 0  -0.2063275432977995 -0.7946199118628733 0  -0.128439389379655 0.2409058598343217 0  -0.3720573793485507 0.1003196196647931 0  0.5996004188704538 0.1743689373898828 0  -0.3977295921614834 -0.8300368678372887 0  0.831854398918799 0.3967014115697668 0  -0.1723958333337611 -0.599479166666772 0  -0.8750000000002064 -1 0  -1 -0.7499999999993436 0  -0.9129629629631679 -0.8751157407406991 0  -0.1250000000003326 -1 0  0 -0.8750000000002064 0  -0.1031637716488998 -0.8973099559314366 0  0 -0.1250000000003326 0  0.1249999999997042 0 0  -0.1061864789873349 -0.04464238644978499 0  0.06202400994051845 0.1021860469775573 0  -0.06421969468982749 0.1204529299171608 0  0.8749999999996679 0 0  1 0.1249999999997042 0  0.8965923843814646 0.1038711909661738 0  1 0.8749999999996679 0  0.7500000000004945 1 0  0.8762281378600443 0.9114519032922154 0  -0.7499999999993436 1 0  -1 0.7500000000004945 0  -0.8125932202135983 0.8125932202138346 0  -0.6250000000008716 -1 0  -0.6742466135122497 -0.8824660432587889 0  -0.7879629629633744 -0.8751157407406991 0  -0.3750000000009979 -1 0  -0.5492466135127085 -0.8824660432587889 0  -0.4488647960814069 -0.9150184339186443 0  -0.2281637716492323 -0.8973099559314366 0  -0.3238647960810743 -0.9150184339186443 0  0 -0.6250000000008716 0  -0.1031637716488998 -0.7723099559316431 0  -0.08619791666688055 -0.6747395833335924 0  0 -0.3750000000009979 0  -0.1335874854263956 -0.4370381739457865 0  -0.08619791666688055 -0.5497395833340513 0  -0.1335874854263956 -0.3120381739454539 0  -0.1061864789873349 -0.1696423864501176 0  0.37499999999904 0 0  0.3129546957665189 0.1323991402117299 0  0.1870240099402226 0.1021860469775573 0  0.6249999999990038 0 0  0.4379546957661506 0.1323991402117299 0  0.5498002094345628 0.0871844686949414 0  0.7715923843811325 0.1038711909661738 0  0.6748002094348948 0.0871844686949414 0  1 0.37499999999904 0  0.8965923843814646 0.2288711909658779 0  0.9159271994593995 0.3233507057845876 0  1 0.6249999999990038 0  0.8833429783950169 0.5511670524683481 0  0.9159271994593995 0.4483507057842193 0  0.8833429783950169 0.67616705246868 0  0.8762281378600443 0.7864519032918833 0  0.2500000000018073 1 0  0.4697368023324055 0.8230945713830722 0  0.6262281378605388 0.9114519032922154 0  -0.2499999999980308 1 0  0.05426315984879964 0.7515582008158026 0  0.2197368023332238 0.8230945713830722 0  -0.117057295925994 0.8220026431091358 0  -0.3670572959266504 0.8220026431091358 0  -0.5625932202129419 0.8125932202138346 0  -1 0.2500000000018073 0  -0.8293353675388717 0.3639149861449163 0  -0.8125932202135983 0.5625932202143291 0  -1 -0.2499999999980308 0  -0.7592726605904714 -0.05468987191650811 0  -0.8232253086422014 -0.2194223985875198 0  -0.8293353675388717 0.1139149861457346 0  -0.8232253086422014 -0.4694223985881762 0  -0.9129629629631679 -0.6251157407400427 0  -0.4895328456034732 -0.6966226293899934 0  -0.3238737175178255 -0.5011947600763258 0  -0.5135115407336313 -0.5335789847200372 0  -0.2934500037403296 -0.7114665420626411 0  -0.3891510281721716 -0.7291750200498489 0  -0.2764841487583104 -0.6138961694645906 0  -0.392860146016867 -0.2417280458629422 0  -0.5824979692326728 -0.2741122705066535 0  -0.3654591395778063 -0.09933225836760594 0  -0.5886080281293431 0.05922511422660085 0  -0.4453013502647468 -0.004530062085424405 0  0.5020827039370247 0.3224130651635028 0  0.6974709865652268 0.491180977420785 0  0.5338648105021209 0.5131084963348451 0  0.7107203925516745 0.2938851159179466 0  0.6139282176054368 0.2771983936467143 0  0.7300552076296094 0.3883646307366563 0  0.2422178556143016 0.3839573410275324 0  0.2739999621793978 0.5746527721988748 0  0.1162871697880053 0.3537442477933599 0  -0.06279413607982001 0.5735608439249384 0  -0.009956534842340693 0.3720111307329634 0  -0.3079348203801014 0.5063816761030321 0  -0.5202128919916663 0.298294019138318 0  -0.5034707446663929 0.4969722532077309 0  -0.2550972191426222 0.3048319629110571 0  -0.37690621412707 0.2345388428262928 0  0.4076914980987257 0.4554937115948021 0  0.2499787057073332 0.2345851871892873 0  0.4877549052020417 0.2195836089066713 0  -0.6224719221542447 -0.6018884418476215 0  -0.7122095764752112 -0.7575817839994879 0  -0.498111409592785 -0.7974844771774332 0  0.6030797807269279 0.6242616238520844 0  0.7595711162550611 0.7126189557612275 0  0.7992701778544163 0.4995177582538955 0  -0.456812794068597 -0.4064605725339538 0  -0.2397739644137304 -0.2316805603949063 0  -0.2197854020932761 -0.4867777572785073 0  0.5959649401919553 0.7345464746752876 0  -0.7361882716053694 -0.5945381393295317 0  -0.1704061736771623 0.07581054346737587 0  -0.2922151686616102 0.005517423382611561 0  -0.002195684749309042 0.2226389768947182 0  -0.429650516140905 0.6345958633229705 0  -0.1812769906171343 0.4424555730262967 0  -0.6419285877524699 0.4265082063582564 0  -0.515364057213147 0.1640747959768183 0  0.6963925938166915 0.1910556596611152 0  0.8125195838408641 0.3022218967510572 0  -0.3020285677296415 -0.812328389850081 0  -0.1893616883157803 -0.6970495392648226 0  -0.2502483843641028 0.1706127397495574 0  -0.9375000000001033 -1 0  -1 -0.8749999999996718 0  -0.956481481481584 -0.9375578703703495 0  -0.0625000000001663 -1 0  0 -0.9375000000001033 0  -0.05158188582444988 -0.9486549779657183 0  0 -0.0625000000001663 0  0.06249999999985208 0 0  -0.05309323949366743 -0.02232119322489249 0  0.03101200497025923 0.05109302348877867 0  -0.03210984734491375 0.06022646495858042 0  -0.08520308683858117 0.03790527173368793 0  0.9374999999998339 0 0  1 0.06249999999985208 0  0.9482961921907322 0.05193559548308688 0  1 0.9374999999998339 0  0.8750000000002472 1 0  0.9381140689300221 0.9557259516461076 0  -0.8749999999996718 1 0  -1 0.8750000000002472 0  -0.9062966101067991 0.9062966101069173 0  -0.8125000000003095 -1 0  -0.6875000000006422 -1 0  -0.7121233067563313 -0.9412330216293945 0  -0.7689814814818936 -0.9375578703703495 0  -0.5625000000011011 -1 0  -0.4375000000011642 -1 0  -0.5246233067570195 -0.9412330216293945 0  -0.4744323980413687 -0.9575092169593222 0  -0.1875000000004989 -1 0  -0.3125000000008316 -1 0  -0.2390818858249488 -0.9486549779657183 0  -0.2869323980408698 -0.9575092169593222 0  0 -0.8125000000003095 0  0 -0.6875000000006422 0  -0.05158188582444988 -0.7611549779660279 0  -0.04309895833344028 -0.7123697916670026 0  0 -0.5625000000011011 0  0 -0.4375000000011642 0  -0.0667937427131978 -0.4685190869735585 0  -0.04309895833344028 -0.5248697916676909 0  0 -0.1875000000004989 0  0 -0.3125000000008316 0  -0.0667937427131978 -0.2810190869730596 0  -0.05309323949366743 -0.2098211932253914 0  0.1874999999995562 0 0  0.3124999999992242 0 0  0.2814773478829636 0.06619957010586495 0  0.2185120049698155 0.05109302348877867 0  0.4374999999988559 0 0  0.5624999999988378 0 0  0.4689773478824112 0.06619957010586495 0  0.5249001047166173 0.0435922343474707 0  0.812499999999502 0 0  0.6874999999991698 0 0  0.7607961921902342 0.05193559548308688 0  0.7124001047171153 0.0435922343474707 0  1 0.1874999999995562 0  1 0.3124999999992242 0  0.9482961921907322 0.2394355954826431 0  0.9579635997296998 0.286675352891998 0  1 0.4374999999988559 0  1 0.5624999999988378 0  0.9416714891975084 0.5255835262335099 0  0.9579635997296998 0.4741753528914455 0  1 0.812499999999502 0  1 0.6874999999991698 0  0.9416714891975084 0.7130835262340079 0  0.9381140689300221 0.7682259516456096 0  0.6250000000007417 1 0  0.3750000000013982 1 0  0.4848684011666973 0.9115472856915361 0  0.5631140689307639 0.9557259516461076 0  0.3598684011671064 0.9115472856915361 0  0.1250000000022165 1 0  -0.1249999999977026 1 0  0.02713157992571266 0.8757791004079013 0  0.1098684011679248 0.9115472856915361 0  -0.05852864796168415 0.9110013215545679 0  -0.6249999999990155 1 0  -0.374999999998359 1 0  -0.4335286479626689 0.9110013215545679 0  -0.5312966101058145 0.9062966101069173 0  -1 0.6250000000007417 0  -1 0.3750000000013982 0  -0.9146676837694359 0.4319574930729526 0  -0.9062966101067991 0.5312966101076591 0  -1 0.1250000000022165 0  -1 -0.1249999999977026 0  -0.8796363302952357 -0.02734493595694122 0  -0.9116126543211007 -0.109711199292447 0  -0.9146676837694359 0.05695749307418016 0  -1 -0.6249999999990155 0  -1 -0.374999999998359 0  -0.9116126543211007 -0.3597111992931035 0  -0.9116126543211007 -0.4847111992934318 0  -0.956481481481584 -0.562557870369365 0  -0.4350526548931665 -0.6624679008262013 0  -0.3522230908503426 -0.5647539661693675 0  -0.4470420024582455 -0.5809460784912232 0  -0.3370112339615947 -0.6698898571625251 0  -0
[...]
<PointData  Scalars="f_1185-1"> 
<DataArray  type="Float64"  Name="f_1185-1"  format="ascii">0.0000000000000000e+00  0.0000000000000000e+00  0.0000000000000000e+00  0.0000000000000000e+00  0.0000000000000000e+00  0.0000000000000000e+00  0.0000000000000000e+00  0.0000000000000000e+00  0.0000000000000000e+00  0.0000000000000000e+00  0.0000000000000000e+00  0.0000000000000000e+00  0.0000000000000000e+00  0.0000000000000000e+00  0.0000000000000000e+00  0.0000000000000000e+00  0.0000000000000000e+00  0.0000000000000000e+00  0.0000000000000000e+00  0.0000000000000000e+00  0.0000000000000000e+00  0.0000000000000000e+00  0.0000000000000000e+00  0.0000000000000000e+00  8.3189738060129428e-02  1.2936876799606442e-01  8.3155347373758015e-02  1.3000508861967949e-01  1.4795386361660515e-01  8.9804929585848861e-02  6.3083566755771550e-02  6.2577943257334567e-02  9.0416282768517195e-02  9.8433049576382214e-02  9.8446887006621450e-02  9.7980737791630024e-02  9.2223726983026222e-02  4.1833646587871531e-02  4.1550641547228283e-02  1.2270353844229957e-01  1.1984192956123958e-01  9.9596713914382323e-02  4.1605680952383817e-02  4.1221587221477216e-02  1.3150030117716935e-01  1.4107309533529064e-01  5.4571922512668208e-02  4.9550488444722006e-02  4.9101999341127606e-02  5.4112866992762111e-02  0.0000000000000000e+00  0.0000000000000000e+00  1.5132480667974129e-02  0.0000000000000000e+00  0.0000000000000000e+00  1.4980451941716754e-02  0.0000000000000000e+00  0.0000000000000000e+00  6.5576269938128109e-02  6.1088701425051933e-02  9.4712231151275236e-02  0.0000000000000000e+00  0.0000000000000000e+00  1.5141404474521893e-02  0.0000000000000000e+00  0.0000000000000000e+00  1.5245945577354324e-02  0.0000000000000000e+00  0.0000000000000000e+00  4.0417788606292138e-02  0.0000000000000000e+00  3.4242126107768382e-02  2.8816638793375458e-02  0.0000000000000000e+00  3.7647904523625687e-02  2.8411231546316782e-02  2.5694654479083302e-02  2.5907553707216119e-02  0.0000000000000000e+00  2.6183642638986888e-02  2.7478390358254827e-02  0.0000000000000000e+00  5.1682438533315292e-02  3.2112018729124191e-02  5.6675588816786214e-02  5.2866423357551096e-02  0.0000000000000000e+00  5.6216436606665747e-02  5.0160508678027467e-02  0.0000000000000000e+00  5.1263064793870973e-02  3.2436534945291987e-02  2.6383499591711025e-02  2.7750939286924400e-02  0.0000000000000000e+00  2.5890042249965672e-02  2.5647339969891134e-02  0.0000000000000000e+00  3.7386841177629825e-02  2.8136693420083254e-02  3.3945570135624104e-02  2.8734217074195809e-02  0.0000000000000000e+00  6.1862187120145753e-02  2.9916960796687868e-02  0.0000000000000000e+00  9.5084888841294651e-02  7.0417091423091022e-02  7.5703136292980019e-02  7.3108113704415348e-02  6.7125874176018674e-02  0.0000000000000000e+00  7.0737663565131198e-02  6.7125876124847203e-02  0.0000000000000000e+00  9.3000548414377160e-02  7.0383936585916879e-02  7.3165380663595375e-02  6.1841543115806974e-02  2.9508148982560985e-02  7.7501533057394809e-02  9.0580841238484963e-02  9.8832058696102842e-02  6.3671819707375454e-02  6.8963292476689572e-02  7.3058915099579305e-02  1.1831365797626109e-01  1.1605305305461236e-01  1.2581470045502516e-01  1.3005190476709888e-01  1.3653790866517240e-01  9.0302834281419830e-02  7.7370985650832863e-02  9.8806911920658408e-02  6.3824733153977797e-02  7.3163930454032994e-02  6.8770553999787834e-02  1.1745448845764050e-01  1.1671451586338656e-01  1.2324039774601984e-01  1.3203690221015280e-01  1.3465664015763362e-01  1.4146141320703826e-01  1.4022603514040130e-01  1.3096889381100849e-01  1.4723224218849096e-01  1.4781675622208137e-01  1.0991213812471784e-01  9.0903162508406049e-02  7.2608572400000515e-02  8.5814381200782650e-02  5.6066409305480937e-02  5.8618746738993470e-02  8.5524439915106359e-02  5.5714433579526434e-02  5.8233331201598029e-02  1.1005406604739751e-01  9.3443844576618751e-02  7.2718655631075477e-02  7.2521477705797269e-02  7.2378930794986973e-02  1.1059364830872589e-01  1.2536714476336705e-01  1.1160218816818231e-01  1.1791381575646000e-01  1.4518204506794033e-01  1.1674721895229860e-01  1.4044469206346138e-01  5.0216538841419252e-02  4.8035563606370978e-02  4.8057219266330838e-02  4.9836897757551631e-02  1.3731177420155188e-01  0.0000000000000000e+00  0.0000000000000000e+00  4.9790405147809762e-03  0.0000000000000000e+00  0.0000000000000000e+00  4.9138413119389091e-03  0.0000000000000000e+00  0.0000000000000000e+00  4.1987624735230870e-02  3.8859110286765954e-02  6.3026682500175207e-02  7.5481622220975195e-02  0.0000000000000000e+00  0.0000000000000000e+00  4.9703157536797908e-03  0.0000000000000000e+00  0.0000000000000000e+00  5.0175458453315443e-03  0.0000000000000000e+00  0.0000000000000000e+00  1.3979243033446716e-02  0.0000000000000000e+00  0.0000000000000000e+00  1.7673382884945944e-02  1.6747951855796576e-02  0.0000000000000000e+00  0.0000000000000000e+00  2.0453906440375643e-02  1.5112483930782562e-02  0.0000000000000000e+00  0.0000000000000000e+00  1.4306985635577717e-02  1.3098973954687693e-02  0.0000000000000000e+00  0.0000000000000000e+00  1.4651391770129288e-02  1.3724761757439304e-02  0.0000000000000000e+00  0.0000000000000000e+00  2.7370315372691103e-02  1.7342566860366396e-02  0.0000000000000000e+00  0.0000000000000000e+00  3.1398374267808650e-02  2.6966256258919651e-02  0.0000000000000000e+00  0.0000000000000000e+00  3.1128637217448810e-02  2.5784914185131656e-02  0.0000000000000000e+00  0.0000000000000000e+00  2.7136365386748459e-02  1.7530035871357517e-02  0.0000000000000000e+00  0.0000000000000000e+00  1.4755988244444407e-02  1.3870896905390525e-02  0.0000000000000000e+00  0.0000000000000000e+00  1.4409612842239976e-02  1.2962656445423467e-02  0.0000000000000000e+00  0.0000000000000000e+00  2.0310080671158453e-02  1.4959318998355261e-02  0.0000000000000000e+00  0.0000000000000000e+00  1.7526768888422608e-02  1.6642918081016426e-02  0.0000000000000000e+00  0.0000000000000000e+00  3.4222949344372512e-02  1.6972544972548850e-02  3.6872354051992511e-02  0.0000000000000000e+00  0.0000000000000000e+00  5.5190183437061800e-02  4.0187353801847514e-02  4.1501770461013270e-02  0.0000000000000000e+00  0.0000000000000000e+00  3.9086140655560840e-02  3.8423140444250541e-02  0.0000000000000000e+00  0.0000000000000000e+00  3.7652539371887658e-02  3.8423141825201415e-02  0.0000000000000000e+00  0.0000000000000000e+00  5.3699586647900692e-02  4.0161931154459055e-02  3.9939201044409761e-02  0.0000000000000000e+00  0.0000000000000000e+00  3.6850732008304757e-02  3.4204333275708265e-02  1.6707439017367012e-02  8.1620024093641691e-02  8.7950852845359070e-02  9.2746675128676709e-02  7.3962524621525416e-02  7.6624890324868411e-02  7.9152989182631972e-02  1.1821863521380449e-01  1.0968884510092744e-01  1.2622421887008622e-01  1.2316114350657989e-01  1.3039300940624599e-01  1.3101733173524216e-01  1.3336140754807652e-01  8.7801452451553894e-02  8.1583256520779746e-02  9.2716457058944990e-02  7.4010946388618604e-02  7.9164000651632205e-02  7.6520562387234439e-02  1.2002736269875484e-01  1.1106767180552225e-01  1.2589588695580828e-01  1.2389109298771032e-01  1.2941469513351550e-01  1.3236796511705468e-01  1.3373699222662708e-01  1.4602814251693338e-01  1.4545823075696726e-01  1.4164367291876989e-01  1.4932995299699350e-01  1.4888017271212053e-01  1.4815948688191086e-01  7.5633570372601572e-02  7.2233810738867130e-02  9.0893837147162454e-02  1.0520442092287320e-01  1.0409133701388494e-01  9.0522159620471568e-02  8.1326078608117303e-02  4.9458789026470967e-02  5.1786522941996531e-02  7.1193233819005053e-02  7.6034271263808323e-02  6.0420810500465195e-02  6.1528603463048573e-02  7.1922370127422197e-02  5.1411664542203840e-02  4.9035245374279328e-02  7.0898755926489129e-02  7.5634155630363339e-02  5.9939438471865294e-02  6.1111879254999481e-02  7.1598693915883763e-02  7.2782566303121826e-02  7.6203865998191581e-02  9.1323040332030064e-02  1.0614848695716191e-01  1.0442275744402964e-01  9.2031773819378285e-02  8.1700327006771392e-02  8.3219926123262511e-02  8.9965540692658802e-02  1.0086585236274358e-01  1.0827594330225924e-01  1.0788083428781971e-01  9.2940551047476921e-02  8.6272440278987603e-02  8.9944984529523014e-02  8.3210983422603968e-02  1.0088524062095931e-01  1.0786515336125135e-01  9.3104335030859631e-02  1.0791786864714817e-01  8.6215388923827588e-02  8.3715317703011619e-02  7.6952828673521559e-02  1.1524329854477362e-01  9.5182928445000550e-02  1.0235471327461274e-01  1.1301732961604836e-01  7.8422835071578753e-02  7.2566189615760918e-02  1.1106318961038565e-01  9.1304975796525176e-02  1.0142086128653309e-01  2.4158116615496623e-02  2.7983422533224767e-02  3.6916931137829269e-02  3.8371200057763288e-02  4.9746142164872872e-02  5.7525303617030697e-02  2.3864464691853927e-02  2.7783284154831962e-02  3.6863842409577914e-02  3.7952862655528712e-02  4.9849725586994742e-02  5.7299994983119509e-02  1.0268601691932747e-01  1.0127085470039908e-01  1.2882541018434079e-01  1.3381664510955318e-01  1.2164124152307329e-01  1.3820071341620430e-01  9.8424291841259989e-02  9.9733584467849856e-02  1.2632841223512206e-01  1.3181619715403253e-01  1.1964619736954561e-01  1.3248050449772467e-01  7.0529734599529631e-02  8.7127923957547940e-02  8.7127925478958590e-02  1.1669423561353838e-01  1.1082430510031485e-01  1.1035941992805101e-01  2.7829525070519501e-02  3.5219160946902833e-02  3.4829335239967105e-02  5.2903899065559402e-02  4.6541345716273323e-02  4.5585993922015726e-02  2.7552851081556522e-02  3.4542226911426499e-02  3.4927281581079730e-02  5.2634987532222975e-02  4.5401084965848743e-02  4.6172767487459035e-02  1.1650415999647439e-01  1.3351146992580570e-01  1.4137858603795220e-01  1.2138775300109104e-01  1.2197436187631638e-01  1.4322258212928418e-01  1.3427119383593031e-01  1.4012179830155952e-01  1.3905117744397597e-01  1.4508490995340903e-01  1.3473073035019761e-01  1.4344457145682368e-01  1.3983898341340129e-01  5.3941640582255097e-02  4.4761164196793955e-02  4.1396794590208189e-02  6.5016227755174599e-02  6.3675424529352820e-02  5.2835732273126407e-02  3.9889520995830825e-02  3.8145476340025894e-02  6.0010113038127096e-02  5.4559457696919222e-02  4.9383688821652394e-02  3.7779485731620946e-02  3.9518758189231902e-02  5.9704830956865497e-02  5.4159827547713708e-02  4.9149703543562774e-02  4.1019023041870627e-02  5.3858203866916921e-02  4.4347356897480095e-02  6.4763676427587624e-02  6.3504066515471538e-02  5.2424396411035801e-02  1.0153583172893716e-02  1.3925050593113986e-02  1.0826531472349242e-02  1.4363712473186229e-02  2.2893061643289608e-02  9.0480974997773651e-03  1.2059349139595020e-02  9.0978806743716271e-03  1.2212156227551054e-02  2.1080714633769870e-02  2.1242750296442601e-02  3.2897976941565217e-02  2.9089892113078331e-02  3.1064114531140406e-02  2.7710002008076544e-02  5.7652957018105778e-02  8.9692648074889039e-02  7.6593724157620682e-02  5.4301723868425050e-02  8.9972146387378063e-02  1.0203169783982442e-01  1.0323659621688704e-01  9.1732680317356281e-03  1.2303548130502832e-02  9.1236455157603664e-03  1.2150299016965902e-02  2.1423978837594365e-02  2.1260793531343018e-02  1.0128443253572504e-02  1.3854320080434995e-02  1.0979376375008827e-02  1.4584351540261007e-02  2.2896982174989994e-02  2.5817176078921176e-02  3.3456867146985585e-02  2.5817176203806209e-02  3.3456867688324843e-02  5.6487530321196876e-02  5.6487530887444300e-02  1.9110694945601088e-02  2.0025545585806170e-02  3.2136677768871719e-02  3.6432725195819027e-02  4.6805208519946163e-02  4.2678117883998785e-02  1.4805585831674994e-02  1.4143678146687143e-02  3.3393315989586815e-02  4.8803097298808273e-02  2.7519775961729116e-02  4.4764385746238672e-02  2.6311150556978354e-02  3.6968921996957740e-02  3.8104718527524700e-02  1.5138398028565149e-02  1.6323406566750041e-02  2.7303723409232837e-02  3.8026985199651579e-02  2.9981795223050643e-02  3.9992121534412138e-02  2.8681164998210534e-02  2.9982980197214053e-02  4.1837710158582515e-02  5.4157220354748369e-02  6.3354964164711008e-02  5.4699990783647859e-02  7.6165447771153458e-02  7.6169874595602288e-02  2.9726590018333721e-02  2.8436273773515378e-02  5.3277668857561709e-02  5.3719089732043430e-02  7.4651481807101308e-02  7.3479653578534060e-02  1.6499244225081325e-02  1.5300693418290958e-02  4.1787027798170499e-02  6.3114354042747858e-02  3.0282437887967244e-02  2.7530748835608132e-02  3.8326820244501222e-02  4.0322347809610200e-02  1.3997909334171400e-02  1.4654272618094683e-02  2.6292542005132785e-02  3.7054821331782881e-02  2.7248854369666245e-02  3.7971694590051598e-02  1.9877623554698284e-02  1.8961885012889718e-02  3.3137487919450821e-02  3.6151389958764733e-02  4.8466779602676147e-02  4.4425437918835180e-02  3.1907736922766820e-02  4.6441473668273225e-02  4.2467044000400966e-02  3.8798583237694612e-02  4.6044801295423786e-02  6.6790334752069788e-02  6.9053498654853523e-02  5.3920392247941776e-02  4.1604451704002718e-02  4.0890903888329846e-02  8.3242646035752460e-02  8.6469960045425176e-02  1.1673065224792932e-01  1.0104069990968405e-01  7.5323599948402861e-02  1.1093013237766911e-01  7.1176003715741162e-02  9.9265184987930952e-02  9.4768826341057821e-02  3.9370187290246876e-02  4.0044804515330601e-02  7.0101055485194852e-02  7.2826941605777573e-02  9.7529954113515699e-02  9.4018613461116007e-02  3.8774801219541757e-02  8.2096415756420807e-02  8.4128687492319762e-02  1.1445717752726818e-01  6.6762447859233895e-02  1.0025922501740352e-01  1.0827066621505094e-01  4.5840662930453982e-02  6.8919515516359289e-02  5.3645307823372249e-02  8.9372046935992724e-02  7.3898859600478511e-02  8.3693470960973876e-02  6.8733648434493352e-02  9.8319232092640305e-02  8.2123878206207826e-02  1.0214552998277941e-01  8.2885397293469387e-02  9.3390047618800986e-02  1.0514308915585577e-01  6.7074905915047292e-02  6.8891841409747384e-02  5.6550044127123264e-02  5.7788484411788639e-02  6.4945942720983058e-02  5.8954495301921719e-02  7.4018666485936871e-02  6.1769906761044692e-02  1.2128408635894374e-01  1.2201109006536597e-01  1.1488017811676036e-01  1.0896585928170816e-01  1.1528729098569661e-01  1.3234909126016509e-01  1.1184849039891030e-01  1.2572185730013516e-01  1.3600346416067130e-01  1.3576752352809418e-01  1.3370365109516555e-01  9.8204783485132716e-02  8.2025924047125914e-02  1.0193341076792697e-01  8.2662003122608102e-02  8.9296544472491454e-02  7.3767450412534297e-02  8.3488395022578543e-02  6.8490143754763130e-02  1.0506627636773620e-01  9.3272451409847190e-02  6.9010612840648966e-02  6.7049812683810953e-02  5.8029967261739965e-02  5.6625004384156734e-02  7.4026204255663378e-02  6.2007559868659051e-02  6.4695622680859335e-02  5.8837259908457770e-02  1.2125236444775382e-01  1.2032557749829638e-01  1.1450177599916352e-01  1.0710528514017159e-01  1.1535568036236968e-01  1.2907445301045617e-01  1.0894153634592135e-01  1.1854534737622771e-01  1.3842908830923673e-01  1.4000980940219757e-01  1.2619052517255724e-01  1.4183806449173372e-01  1.3823806856505114e-01  1.3170049643410836e-01  1.4461570496880266e-01  1.3762221560733906e-01  1.4628699211010701e-01  1.3042225835704094e-01  1.4097326454198611e-01  1.2625420165951062e-01  1.2567495599130915e-01  1.4813830484445972e-01  1.4727795980473532e-01  1.4341203335661404e-01  1.4551898972911451e-01  1.4483718166373272e-01  8.0289874689769003e-02  6.5729652524396179e-02  8.0143313834000821e-02  6.5610079321950635e-02  1.1859861295773254e-01  1.2620603431433938e-01  1.3104173974941846e-01  0.0000000000000000e+00  0.0000000000000000e+00  1.5443457890053907e-03  0.0000000000000000e+00  0.0000000000000000e+00  1.5205850706308259e-03  0.0000000000000000e+00  0.0000000000000000e+00  2.6510173191221217e-02  2.4454281725414515e-02  4.0608420752666421e-02  4.9129466053075797e-02  0.0000000000000000e+00  0.0000000000000000e+00  1.5387640960901725e-03  0.0000000000000000e+00  0.0000000000000000e+00  1.5564736946678209e-03  0.0000000000000000e+00  0.0000000000000000e+00  4.4631927444788392e-03  0.0000000000000000e+00  0.0000000000000000e+00  8.9604362722381838e-03  8.9973235920438217e-03  0.0000000000000000e+00  0.0000000000000000e+00  1.0646930957195575e-02  7.7822704914018107e-03  0.0000000000000000e+00  0.0000000000000000e+00  7.5415480519482065e-03  6.5678809029382623e-03  0.0000000000000000e+00  0.0000000000000000e+00  7.7350208509257947e-03  6.8436003476937401e-03  0.0000000000000000e+00  0.0000000000000000e+00  1.4062892901318652e-02  8.9943587836499757e-03  0.0000000000000000e+00  0.0000000000000000e+00  1.6479696692361788e-02  1.3600702374392010e-02  0.0000000000000000e+00  0.0000000000000000e+00  1.6335154351678247e-02  1.3050076690117497e-02  0.0000000000000000e+00  0.0000000000000000e+00  1.3940135445169196e-02  9.0945182350296947e-03  0.0000000000000000e+00  0.0000000000000000e+00  7.7889590253161544e-03  6.9191127858039044e-03  0.0000000000000000e+00  0.0000000000000000e+00  7.5947325848995080e-03  6.4985321433478765e-03  0.0000000000000000e+00  0.0000000000000000e+00  1.0570174695545291e-02  7.7013001665632687e-03  0.0000000000000000e+00  0.0000000000000000e+00  8.8893183540753769e-03  8.9282241184339348e-03  0.0000000000000000e+00  0.0000000000000000e+00  1.7959551628390302e-02  8.9632325009062937e-03  1.8697409818329375e-02  0.0000000000000000e+00  0.0000000000000000e+00  2.9538518424446280e-02  2.1284067464034075e-02  2.1663222108346241e-02  0.0000000000000000e+00  0.0000000000000000e+00  2.0130496124913667e-02  2.0482099656238414e-02  0.0000000000000000e+00  0.0000000000000000e+00  1.9347722425836041e-02  2.0482100433944234e-02  0.0000000000000000e+00  0.0000000000000000e+00  2.8677988956928541e-02  2.1269347419435175e-02  2.0807712635454421e-02  0.0000000000000000e+00  0.0000000000000000e+00  1.8685155274111950e-02  1.7947995618629257e-02  8.8162970078642100e-03  8.2744751976900441e-02  8.5852109950960404e-02  8.8363400193824881e-02  7.8727185855795592e-02  8.0033001509866086e-02  8.1420055878742625e-02  1.2556665381735940e-01  1.2198593236368845e-01  1.2841462290619923e-01  1.2636578346043389e-01  1.3056472377752518e-01  1.3050596667741457e-01  1.3147538153589203e-01  8.5761299751258790e-02  8.2721860929700658e-02  8.8331001105152629e-02  7.8730922852728591e-02  8.1402573434787101e-02  7.9965630480643743e-02  1.2690603081322968e-01  1.2325786246269295e-01  1.2851639305413609e-01  1.2706670753864116e-01  1.3038902319233550e-01  1.3150618284173385e-01  1.3225411273415535e-01  1.4729279578487614e-01  1.4701905667993420e-01  1.4539305799022295e-01  1.4905893893920105e-01  1.4868333021830385e-01  1.4854141200086460e-01  8.3349060589874430e-02  8.1461934838664513e-02  9.0545018100630578e-02  9.7855463808543861e-02  9.8050361505009426e-02  9.0224605636775118e-02  8.5596259145963735e-02  5.6483867868110292e-02  5.7776519813351405e-02  6.7338109406015104e-02  7.0003316089164755e-02  6.1954696314337081e-02  6.2488569070622876e-02  6.8536517393979507e-02  5.7339540742713871e-02  5.6012483193083801e-02  6.6942455218673882e-02  6.9550750091868022e-02  6.1448737089036011e-02  6.2035403947336212e-02  6.8094121635955115e-02  8.2051053959713599e-02  8.3948076463551624e-02  9.1060894531833067e-02  9.8682067014115832e-02  9.8510053942780437e-02  9.1277294252442617e-02  8.6093052933670797e-02  9.1592507719266011e-02  9.5592871612723132e-02  1.0023553291612076e-01  1.0353635373807087e-01  1.0406449866847292e-01  9.5898047960180366e-02  9.2566454887340818e-02  9.5586753858212206e-02  9.1593718119486786e-02  1.0025204125918519e-01  1.0331767047366446e-01  9.5990221541080958e-02  1.0407973334385709e-01  9.2547605962239876e-02  9.1283745925815521e-02  8.7923029420154217e-02  1.0751021592011628e-01  9.6394116895697032e-02  9.9732134576222667e-02  1.0580220692606512e-01  8.5724332673421069e-02  8.2783816679541919e-02  1.0252895041048443e-01  9.1660736578758992e-02  9.6671699388533830e-02  3.3721499309686750e-02  3.4835148390287431e-02  3.9745513996561066e-02  4.0758029150580778e-02  4.6047387864089594e-02  4.9722349441314206e-02  3.340075443