<?xml version="1.0"?>
<VTKFile type="UnstructuredGrid"  version="0.1"  >
<UnstructuredGrid>
<Piece  NumberOfPoints="2465" NumberOfCells="4736">
<Points>
<DataArray  type="Float64"  NumberOfComponents="3"  format="ascii">-1 -1 0  0 -1 0  0 0 0  1 0 0  1 1 0  -1 1 0  -0.7500000000004128 -1 0  -0.5000000000013305 -1 0  -0.2500000000006652 -1 0  0 -0.7500000000004128 0  0 -0.5000000000013305 0  0 -0.2500000000006652 0  0.2499999999994083 0 0  0.4999999999986718 0 0  0.7499999999993359 0 0  1 0.2499999999994083 0  1 0.4999999999986718 0  1 0.7499999999993359 0  0.500000000000989 1 0  2.625677453238495e-12 1 0  -0.4999999999986873 1 0  -1 0.500000000000989 0  -1 2.625677453238495e-12 0  -1 -0.4999999999986873 0  -0.3805724641828597 -0.6283131722624091 0  -0.5185453211809429 -0.1093797438356419 0  0.6282560163404198 0.3800278499035458 0  0.1085263196949736 0.5031164016316051 0  -0.3817550489055893 0.3687580659877924 0  0.3759093915336295 0.2647982804234598 0  -0.5984932270240866 -0.7649320865175777 0  0.7666859567900337 0.6023341049380243 0  -0.2671749708527912 -0.3740763478902425 0  0.439473604663822 0.6461891427661444 0  -0.6464506172844028 -0.4388447971776652 0  -0.2123729579746697 -0.08928477289956997 0  0.1240480198810369 0.2043720939551147 0  0.7524562757200886 0.8229038065844307 0  -0.825925925926336 -0.7502314814813982 0  -0.2341145918546136 0.6440052862182717 0  -0.6586707350777433 0.2278299722888436 0  -0.6251864404271965 0.6251864404276692 0  0.7931847687629292 0.2077423819323475 0  -0.2063275432977995 -0.7946199118628733 0  -0.128439389379655 0.2409058598343217 0  -0.3720573793485507 0.1003196196647931 0  0.5996004188704538 0.1743689373898828 0  -0.3977295921614834 -0.8300368678372887 0  0.831854398918799 0.3967014115697668 0  -0.1723958333337611 -0.599479166666772 0  -0.8750000000002064 -1 0  -1 -0.7499999999993436 0  -0.9129629629631679 -0.8751157407406991 0  -0.1250000000003326 -1 0  0 -0.8750000000002064 0  -0.1031637716488998 -0.8973099559314366 0  0 -0.1250000000003326 0  0.1249999999997042 0 0  -0.1061864789873349 -0.04464238644978499 0  0.06202400994051845 0.1021860469775573 0  -0.06421969468982749 0.1204529299171608 0  0.8749999999996679 0 0  1 0.1249999999997042 0  0.8965923843814646 0.1038711909661738 0  1 0.8749999999996679 0  0.7500000000004945 1 0  0.8762281378600443 0.9114519032922154 0  -0.7499999999993436 1 0  -1 0.7500000000004945 0  -0.8125932202135983 0.8125932202138346 0  -0.6250000000008716 -1 0  -0.6742466135122497 -0.8824660432587889 0  -0.7879629629633744 -0.8751157407406991 0  -0.3750000000009979 -1 0  -0.5492466135127085 -0.8824660432587889 0  -0.4488647960814069 -0.9150184339186443 0  -0.2281637716492323 -0.8973099559314366 0  -0.3238647960810743 -0.9150184339186443 0  0 -0.6250000000008716 0  -0.1031637716488998 -0.7723099559316431 0  -0.08619791666688055 -0.6747395833335924 0  0 -0.3750000000009979 0  -0.1335874854263956 -0.4370381739457865 0  -0.08619791666688055 -0.5497395833340513 0  -0.1335874854263956 -0.3120381739454539 0  -0.1061864789873349 -0.1696423864501176 0  0.37499999999904 0 0  0.3129546957665189 0.1323991402117299 0  0.1870240099402226 0.1021860469775573 0  0.6249999999990038 0 0  0.4379546957661506 0.1323991402117299 0  0.5498002094345628 0.0871844686949414 0  0.7715923843811325 0.1038711909661738 0  0.6748002094348948 0.0871844686949414 0  1 0.37499999999904 0  0.8965923843814646 0.2288711909658779 0  0.9159271994593995 0.3233507057845876 0  1 0.6249999999990038 0  0.8833429783950169 0.5511670524683481 0  0.9159271994593995 0.4483507057842193 0  0.8833429783950169 0.67616705246868 0  0.8762281378600443 0.7864519032918833 0  0.2500000000018073 1 0  0.4697368023324055 0.8230945713830722 0  0.6262281378605388 0.9114519032922154 0  -0.2499999999980308 1 0  0.05426315984879964 0.7515582008158026 0  0.2197368023332238 0.8230945713830722 0  -0.117057295925994 0.8220026431091358 0  -0.3670572959266504 0.8220026431091358 0  -0.5625932202129419 0.8125932202138346 0  -1 0.2500000000018073 0  -0.8293353675388717 0.3639149861449163 0  -0.8125932202135983 0.5625932202143291 0  -1 -0.2499999999980308 0  -0.7592726605904714 -0.05468987191650811 0  -0.8232253086422014 -0.2194223985875198 0  -0.8293353675388717 0.1139149861457346 0  -0.8232253086422014 -0.4694223985881762 0  -0.9129629629631679 -0.6251157407400427 0  -0.4895328456034732 -0.6966226293899934 0  -0.3238737175178255 -0.5011947600763258 0  -0.5135115407336313 -0.5335789847200372 0  -0.2934500037403296 -0.7114665420626411 0  -0.3891510281721716 -0.7291750200498489 0  -0.2764841487583104 -0.6138961694645906 0  -0.392860146016867 -0.2417280458629422 0  -0.5824979692326728 -0.2741122705066535 0  -0.3654591395778063 -0.09933225836760594 0  -0.5886080281293431 0.05922511422660085 0  -0.4453013502647468 -0.004530062085424405 0  0.5020827039370247 0.3224130651635028 0  0.6974709865652268 0.491180977420785 0  0.5338648105021209 0.5131084963348451 0  0.7107203925516745 0.2938851159179466 0  0.6139282176054368 0.2771983936467143 0  0.7300552076296094 0.3883646307366563 0  0.2422178556143016 0.3839573410275324 0  0.2739999621793978 0.5746527721988748 0  0.1162871697880053 0.3537442477933599 0  -0.06279413607982001 0.5735608439249384 0  -0.009956534842340693 0.3720111307329634 0  -0.3079348203801014 0.5063816761030321 0  -0.5202128919916663 0.298294019138318 0  -0.5034707446663929 0.4969722532077309 0  -0.2550972191426222 0.3048319629110571 0  -0.37690621412707 0.2345388428262928 0  0.4076914980987257 0.4554937115948021 0  0.2499787057073332 0.2345851871892873 0  0.4877549052020417 0.2195836089066713 0  -0.6224719221542447 -0.6018884418476215 0  -0.7122095764752112 -0.7575817839994879 0  -0.498111409592785 -0.7974844771774332 0  0.6030797807269279 0.6242616238520844 0  0.7595711162550611 0.7126189557612275 0  0.7992701778544163 0.4995177582538955 0  -0.456812794068597 -0.4064605725339538 0  -0.2397739644137304 -0.2316805603949063 0  -0.2197854020932761 -0.4867777572785073 0  0.5959649401919553 0.7345464746752876 0  -0.7361882716053694 -0.5945381393295317 0  -0.1704061736771623 0.07581054346737587 0  -0.2922151686616102 0.005517423382611561 0  -0.002195684749309042 0.2226389768947182 0  -0.429650516140905 0.6345958633229705 0  -0.1812769906171343 0.4424555730262967 0  -0.6419285877524699 0.4265082063582564 0  -0.515364057213147 0.1640747959768183 0  0.6963925938166915 0.1910556596611152 0  0.8125195838408641 0.3022218967510572 0  -0.3020285677296415 -0.812328389850081 0  -0.1893616883157803 -0.6970495392648226 0  -0.2502483843641028 0.1706127397495574 0  -0.9375000000001033 -1 0  -1 -0.8749999999996718 0  -0.956481481481584 -0.9375578703703495 0  -0.0625000000001663 -1 0  0 -0.9375000000001033 0  -0.05158188582444988 -0.9486549779657183 0  0 -0.0625000000001663 0  0.06249999999985208 0 0  -0.05309323949366743 -0.02232119322489249 0  0.03101200497025923 0.05109302348877867 0  -0.03210984734491375 0.06022646495858042 0  -0.08520308683858117 0.03790527173368793 0  0.9374999999998339 0 0  1 0.06249999999985208 0  0.9482961921907322 0.05193559548308688 0  1 0.9374999999998339 0  0.8750000000002472 1 0  0.9381140689300221 0.9557259516461076 0  -0.8749999999996718 1 0  -1 0.8750000000002472 0  -0.9062966101067991 0.9062966101069173 0  -0.8125000000003095 -1 0  -0.6875000000006422 -1 0  -0.7121233067563313 -0.9412330216293945 0  -0.7689814814818936 -0.9375578703703495 0  -0.5625000000011011 -1 0  -0.4375000000011642 -1 0  -0.5246233067570195 -0.9412330216293945 0  -0.4744323980413687 -0.9575092169593222 0  -0.1875000000004989 -1 0  -0.3125000000008316 -1 0  -0.2390818858249488 -0.9486549779657183 0  -0.2869323980408698 -0.9575092169593222 0  0 -0.8125000000003095 0  0 -0.6875000000006422 0  -0.05158188582444988 -0.7611549779660279 0  -0.04309895833344028 -0.7123697916670026 0  0 -0.5625000000011011 0  0 -0.4375000000011642 0  -0.0667937427131978 -0.4685190869735585 0  -0.04309895833344028 -0.5248697916676909 0  0 -0.1875000000004989 0  0 -0.3125000000008316 0  -0.0667937427131978 -0.2810190869730596 0  -0.05309323949366743 -0.2098211932253914 0  0.1874999999995562 0 0  0.3124999999992242 0 0  0.2814773478829636 0.06619957010586495 0  0.2185120049698155 0.05109302348877867 0  0.4374999999988559 0 0  0.5624999999988378 0 0  0.4689773478824112 0.06619957010586495 0  0.5249001047166173 0.0435922343474707 0  0.812499999999502 0 0  0.6874999999991698 0 0  0.7607961921902342 0.05193559548308688 0  0.7124001047171153 0.0435922343474707 0  1 0.1874999999995562 0  1 0.3124999999992242 0  0.9482961921907322 0.2394355954826431 0  0.9579635997296998 0.286675352891998 0  1 0.4374999999988559 0  1 0.5624999999988378 0  0.9416714891975084 0.5255835262335099 0  0.9579635997296998 0.4741753528914455 0  1 0.812499999999502 0  1 0.6874999999991698 0  0.9416714891975084 0.7130835262340079 0  0.9381140689300221 0.7682259516456096 0  0.6250000000007417 1 0  0.3750000000013982 1 0  0.4848684011666973 0.9115472856915361 0  0.5631140689307639 0.9557259516461076 0  0.3598684011671064 0.9115472856915361 0  0.1250000000022165 1 0  -0.1249999999977026 1 0  0.02713157992571266 0.8757791004079013 0  0.1098684011679248 0.9115472856915361 0  -0.05852864796168415 0.9110013215545679 0  -0.6249999999990155 1 0  -0.374999999998359 1 0  -0.4335286479626689 0.9110013215545679 0  -0.5312966101058145 0.9062966101069173 0  -1 0.6250000000007417 0  -1 0.3750000000013982 0  -0.9146676837694359 0.4319574930729526 0  -0.9062966101067991 0.5312966101076591 0  -1 0.1250000000022165 0  -1 -0.1249999999977026 0  -0.8796363302952357 -0.02734493595694122 0  -0.9116126543211007 -0.109711199292447 0  -0.9146676837694359 0.05695749307418016 0  -1 -0.6249999999990155 0  -1 -0.374999999998359 0  -0.9116126543211007 -0.3597111992931035 0  -0.9116126543211007 -0.4847111992934318 0  -0.956481481481584 -0.562557870369365 0  -0.4350526548931665 -0.6624679008262013 0  -0.3522230908503426 -0.5647539661693675 0  -0.4470420024582455 -0.5809460784912232 0  -0.3370112339615947 -0.6698898571625251 0  -0
[...]
<PointData  Scalars="f_1222"> 
<DataArray  type="Float64"  Name="f_1222"  format="ascii">5.2323278890820932e-37  1.9287498479924908e-22  1.0000000000000007e+00  1.9287498477352031e-22  3.2505959589438221e-35  -4.1338459475787091e-34  1.0667666968570436e-34  7.1877820763044789e-28  8.4743354045046095e-24  6.1019366774163406e-13  3.7266531718307622e-06  4.3936933622676776e-02  4.3936933624057393e-02  3.7266531723261655e-06  6.1019366779093774e-13  8.4743354046872857e-24  7.1877816429946655e-28  2.0169322887382960e-34  1.3501613823607799e-27  1.9292624420471274e-22  7.2746980972823264e-28  7.0357813129601308e-28  1.9288081194441111e-22  7.2120515189658461e-28  1.9162668977420846e-12  7.9680255507567137e-07  1.9634078794148592e-12  1.7688095949517925e-06  7.6302775528878003e-07  2.5641459675251568e-05  3.2822362120447950e-21  2.2786893932572884e-21  2.5783418793847617e-05  5.4811691714868081e-14  5.5402159051737605e-14  7.0390131899029040e-02  5.7395280447833895e-02  1.0019433334718212e-27  9.2288512684273699e-28  6.3649952333070548e-11  2.8313520305638580e-11  1.0598613010815594e-17  2.5189135119192484e-15  2.3144762552223960e-15  2.4074177105557648e-02  5.9643757092644133e-04  3.4110030757167318e-09  4.0213402572125526e-19  3.6017837893543704e-19  3.5554658875891482e-09  1.3282153178721016e-37  3.2509732813615093e-33  -1.9047016626104193e-37  8.8304602690122928e-23  2.3695417472976190e-17  1.9273300168611200e-18  4.5783336176971073e-01  4.5783336177330747e-01  5.1508386372927639e-01  4.8946207339964576e-01  3.9390170693827775e-01  2.3695417474103275e-17  8.8304602692788620e-23  2.0404599981252527e-18  5.8204506645152009e-36  1.1034083217129273e-31  3.6750929355093320e-34  -4.1135516356509864e-32  4.9723666271124691e-31  1.3567461382697604e-29  6.3510633788713435e-31  1.6521096338610301e-27  7.7230808294685745e-31  1.7046798551017903e-25  3.4595351815536990e-24  2.7802480775604041e-23  2.4300785490520849e-19  3.4796437758895037e-21  3.2937141101266630e-09  6.5595349673417578e-14  8.9643599947527524e-11  8.8382630690197811e-04  2.9169144942518208e-05  1.8887422566190479e-07  3.1489950364720536e-03  1.3496964468519543e-01  8.8382630696686761e-04  3.1088304128711196e-03  1.0320908214240976e-01  3.2937141105111584e-09  2.8469067994374133e-05  1.8664263452390953e-07  6.8825533154746816e-14  8.8517334614041728e-11  1.7046798551478634e-25  2.5500691530301102e-19  3.2555826814198741e-21  6.3610910985226399e-31  2.8807347011430020e-24  2.6179920597574780e-23  1.3430944332372271e-27  7.9198925726483403e-31  8.4912127937924442e-24  3.1419237700304991e-20  2.7922237999929676e-27  8.4729555671819571e-24  4.6851373041696139e-13  1.7383123051736768e-16  1.0716918897341737e-15  2.5232846433737845e-18  6.1467794572071928e-22  8.4745257839615754e-24  1.5449139774281666e-18  6.1467812329262813e-22  8.4758342808235829e-24  2.6098909749440300e-13  1.7316186350248264e-16  6.0658379335216048e-16  3.1545220719976942e-20  2.6023956763600917e-27  1.8131882372341945e-16  1.8518073768108387e-08  1.2348991981946566e-12  1.3753784786387335e-13  1.4652703508938455e-15  1.4336897415908056e-10  2.3973125538498429e-05  1.0011955008635073e-09  7.6827408062489402e-04  2.5151425887660778e-08  4.9393550424358706e-05  1.8567347512119960e-08  1.5763861869316692e-16  1.2416273158835446e-12  1.4319101491702195e-13  1.4028566743085967e-10  1.4167871889380700e-15  3.3477517448829619e-05  1.5811879686915897e-09  9.7518346522190344e-04  5.8998296844783206e-08  9.8332517025926237e-04  2.3593070880786787e-08  1.5537043790091531e-08  1.3569309065984616e-11  3.7079699020904454e-04  5.2571408423737120e-05  7.6823223496525609e-09  2.8060480658294901e-03  6.1227124462169564e-07  5.2430168419977676e-17  3.3314581308979528e-24  6.3399981370752659e-20  4.3647317566146776e-17  2.7824736952811715e-24  5.1251585388440845e-20  7.6054077816458170e-09  3.8550480651648057e-03  6.3928824431057298e-07  3.7249938293874706e-20  3.5939912049308164e-20  1.7564767684471461e-01  1.3967705865638443e-02  8.3856627556339478e-02  1.7647912661413573e-13  1.0849255786224603e-05  1.2643120189296533e-13  4.4462593352508091e-07  4.7482476080894955e-12  4.7953137112762939e-17  4.8989120352282767e-17  4.6843429311807580e-12  1.0186947427977901e-02  -6.0845249330727418e-38  2.4440969146231230e-35  5.5134800433574045e-37  1.5865463484386861e-22  8.2185135540141228e-20  2.5126901488764660e-20  8.2257756239780944e-01  8.2257756239942537e-01  8.4716788948277855e-01  8.3643030863448609e-01  7.9222212241330037e-01  6.4738197397325059e-01  8.2185135542419495e-20  1.5865463484092830e-22  2.5949134145449698e-20  5.3074468562583688e-36  1.2725286454404866e-33  5.4215197386312942e-35  5.0480037065960476e-32  -1.1013045289670403e-32  -2.4651916932359680e-31  -6.0022263398379151e-37  1.0435053822867947e-32  5.6285265571062006e-31  1.1772753331257541e-32  2.5977923242929349e-29  1.3456806133846919e-26  6.1089302988895722e-26  1.5985984561503881e-25  3.3255818086502778e-23  1.4611586718374455e-24  1.6470176793916718e-21  2.0120758804971114e-22  4.6226304053673992e-15  5.4500431326435419e-11  2.2995803218827887e-13  8.7111960575122916e-12  1.3468696887252920e-07  6.9769577192443582e-05  1.3693669034490252e-05  9.4953739770399883e-07  1.7242162389213983e-01  7.5756774440630869e-03  1.5426683634224897e-02  9.6116790394451604e-02  1.7242162389518745e-01  7.5756774444436115e-03  1.5289422604995875e-02  8.0628776209366967e-02  6.9769577199489324e-05  1.3468696888967606e-07  1.3455712842370895e-05  9.4600295771950690e-07  4.6226304056711714e-15  5.4500431331952326e-11  2.3589075338008838e-13  8.6738392349481616e-12  3.3255818087620085e-23  1.4611586719344299e-24  1.6896701417635250e-21  1.9406466217653558e-22  1.3456806143510023e-26  2.5977661695252508e-29  5.5736524361381203e-26  1.5492967840830910e-25  2.4086138088276810e-35  1.0751205615706752e-32  5.0537563392100152e-31  1.2151663800350157e-32  1.1099265483047102e-29  1.7371252288122359e-25  7.1100501093162505e-24  1.9795560047809524e-27  1.3952979906295558e-21  8.8363140272668250e-23  8.8312227627308988e-23  2.1333400406074345e-17  4.9512570060843998e-19  8.0178182009172547e-19  -4.0490336058269336e-30  1.7074876404831584e-25  7.8926086727956661e-23  1.0827908194917470e-24  1.4709714776334516e-30  1.7047535877179764e-25  6.0450833032142567e-23  1.0828507180651845e-24  8.8304434779770379e-23  8.8311655347546584e-23  1.5197648671042845e-17  4.9303398122251580e-19  5.7895837000516094e-19  6.8100489436913247e-31  1.7059980204043554e-25  1.3948655091663877e-21  7.1199658233354123e-24  1.8286534725304450e-27  2.2920914419230275e-14  2.3999394991063739e-10  2.1463660699532285e-12  6.1543342004781174e-13  6.0230014513908646e-14  1.9028314370162908e-11  9.7681834080267910e-10  4.3609726788486986e-11  6.6279992582368342e-06  4.1730621238238776e-08  3.3205091634583796e-05  2.1474805739735947e-07  7.6968598476668585e-06  2.4284183446467375e-10  2.1797930997027455e-14  2.1777761719124816e-12  6.3337966654430582e-13  1.8990161656269498e-11  6.0088686340169667e-14  2.0429731605751681e-09  7.3598035814503507e-11  1.1490197609536543e-05  7.9388735042452552e-08  5.4933292645653300e-05  4.9606119219612904e-07  6.1618247548474698e-05  1.8199783422986144e-07  1.4722436320123657e-07  4.7557037978097444e-09  2.1632705836146799e-05  7.9354070866474381e-06  5.0891075811345186e-06  3.6935806386672058e-04  3.5295439519810331e-05  8.7758585039188381e-07  4.3748012472754087e-05  7.0813127060632554e-07  3.3079987426432771e-04  4.7528177651346888e-06  2.9733846488620166e-24  1.3054271456173503e-22  9.4861253164406568e-19  5.8251725037284698e-19  1.2299739182342900e-22  1.6579986884414309e-20  1.9788718057380335e-20  9.9239601951920428e-23  2.2200591809467482e-24  7.4259594146086344e-19  4.4334410718061285e-19  9.2759930533403309e-23  1.2498206476504971e-20  1.6501438623557858e-20  3.6018912014817040e-05  3.7370417743381432e-04  8.8032400844903590e-07  3.7703124617804575e-05  7.0332123637127779e-07  4.1004928987349430e-04  4.8939909601689300e-06  6.2072571825412200e-17  8.3466810263106522e-15  3.6386860024486767e-13  1.3975100590938019e-11  3.2740024795355293e-11  2.1743776758059647e-15  6.7659234941695797e-17  8.3560726796104972e-15  6.2509831416079796e-17  3.6495485079676178e-13  1.1003803740728592e-11  2.3932453241127611e-15  3.2602193773002029e-11  6.6813108225813406e-17  2.2476328750459862e-01  1.2165788934006147e-01  9.8692741618455464e-03  2.1425042999409526e-02  1.5981030975979874e-01  3.7994007470255470e-02  2.0038621978670951e-01  9.2153808269693230e-02  9.8953960150087034e-03  1.5650638305237705e-02  8.5023245996697944e-02  5.6921304784890181e-31  1.9260760861444623e-31  3.4645757085658781e-29  2.2495986878340049e-27  6.1503812316775408e-26  9.1467945751625550e-24  4.7683645075482313e-31  1.7506647092443242e-31  3.3036729244367438e-29  2.0715862902588904e-27  6.5220617673404391e-26  8.6232837492889385e-24  4.6059291247290097e-13  2.3486840863232737e-14  2.9757315621199940e-09  1.6622452224684336e-09  5.4111324074997897e-12  4.5214768432810864e-08  1.1997798555326668e-14  2.2182286753962663e-13  1.2801204037330637e-09  8.9682240913805164e-10  3.1097986572410344e-12  4.8255649967640421e-09  3.5937487514771557e-23  1.3148608202288327e-19  1.3148608390110560e-19  1.7724302232479279e-14  2.2080740667570319e-15  1.9026541566922750e-15  9.3775966040607156e-17  1.5155968612739080e-14  2.9131022810851643e-17  2.2686394522514669e-14  1.2337998859027488e-13  3.9039391002445957e-16  8.7041696971130166e-17  2.7218977171470079e-17  1.4162538392916296e-14  2.1388456372537087e-14  3.7905144093359554e-16  1.1770481257039231e-13  1.2292003953790059e-01  7.1886034253607622e-03  3.8425223515265563e-03  9.3459753099659412e-02  5.5064958438596191e-02  8.7934033624852614e-04  2.0052532031732448e-02  7.1089440563188405e-06  2.1058174294243828e-04  2.2186129288873554e-04  3.4973710492480015e-03  2.2147960030810684e-05  3.1562833880713972e-03  4.4160904193379872e-07  2.8620292083941373e-08  6.4851283486712779e-10  7.9152466473181416e-10  5.4817704572529315e-08  1.4357510852563368e-10  3.7811800671624696e-21  4.3830552122267566e-20  2.7591186694817998e-17  1.8352053922140239e-19  4.9963999793863518e-18  4.0008517189119707e-20  3.4681350310533422e-21  2.5736309125191724e-17  1.5713175173588964e-19  4.6682620377436379e-18  6.6495491145242267e-10  4.5638692870103242e-07  2.9329242351255466e-08  8.1963515452720352e-10  5.7469996346347527e-08  1.4588683869443317e-10  -2.5958222536406279e-37  7.8064823826037314e-35  1.4393257041967259e-34  7.5805571663564333e-31  4.5979333253290427e-33  1.4972867925194918e-20  6.0370499384610085e-21  7.7676282865040907e-18  1.6247690965392354e-15  8.3197703671772125e-19  4.3225269472715439e-16  6.0612057442713063e-01  2.9342849363689560e-01  5.6679952673798961e-01  2.5988601779148457e-01  3.2053847446427147e-01  3.7967605791559195e-01  5.3812646127884811e-01  2.7323832960483779e-01  2.5572974956800254e-01  3.1048859366894355e-01  2.1728656093136373e-01  8.0038419089287279e-18  1.6704283444809462e-15  1.5428682406049023e-20  6.2070969033827851e-21  4.5557719439165681e-16  8.7692643575473310e-19  2.8389530336592395e-35  1.6812432493387308e-34  5.0147413462605793e-33  1.2311321163655218e-30  5.3885158698590670e-33  1.0964204180144290e-31  6.5022635403600879e-28  -2.3741686325574237e-31  6.5558233421140274e-28  2.4839959024740086e-25  2.4843410882884316e-25  3.9686873751835072e-29  1.8929352342614446e-27  4.2020035321743397e-29  9.1907760482207090e-26  9.1796707996528523e-26  2.0483943162346872e-27  2.5508641292199325e-24  2.7541588289159374e-23  1.1272113417293251e-23  5.2960687513452228e-22  3.7812231531483617e-22  1.6264667434721070e-21  3.2734032953474557e-20  4.0428172886341541e-18  4.7386266683429816e-19  6.1499110197996661e-10  2.9377416070812271e-08  2.7411934460175623e-12  6.5289773514188314e-13  5.0022930886058384e-09  2.3553865714084399e-11  2.1057995302349645e-04  2.1911289646115448e-03  2.8293895806899171e-06  3.6844356710261366e-04  4.8873838129466137e-06  2.6813589383788562e-02  4.3487778440724307e-03  2.9916078495791084e-02  2.1654221524885211e-03  2.0751418250791805e-04  2.2090415493388645e-02  3.6166649869713542e-04  3.5364075334998035e-03  2.2263026732448073e-02  2.9262520726482472e-08  6.1246981869403989e-10  2.7650304079315428e-06  4.7357212844765119e-06  4.9413171942726002e-09  2.7845843304190952e-12  6.7469086080161990e-13  2.3598430532779378e-11  2.6606564156525953e-23  2.4682255769555959e-24  3.2365195733128612e-20  4.0856744843235934e-18  3.5491280467205844e-22  4.5414653308833164e-19  1.7167410944301400e-27  3.5782850291401176e-29  1.0043550699411470e-23  7.5618070360645529e-26  4.3396859440285208e-22  1.4188243407025647e-21  3.7938176147631464e-29  7.5273979562021697e-26  1.8807728659213948e-27  5.7409345186939923e-20  1.4008661890818752e-23  5.1045120609716676e-18  4.6049369099944579e-20  1.5236760019915445e-23  1.7661607336231022e-19  8.1549123849171021e-21  1.3547265810366304e-14  3.4408925113867887e-14  2.9320011501952206e-10  1.1765668538320213e-12  1.1358229988310626e-16  1.7844963592160876e-11  6.3584230024908207e-20  1.0870793021534745e-15  1.9302473057305176e-17  6.1244753331935294e-21  1.3006208373367882e-19  5.0650554645804877e-20  6.6863655336733842e-17  7.1996388900419727e-16  1.5992024833562013e-17  5.7279230703177634e-20  9.9324721186217163e-15  1.9086625993238571e-14  1.3713757552195687e-10  5.1048792682072797e-18  8.9189316073468293e-13  8.3666956363704188e-12  1.3565086682190643e-23  4.5015312053243524e-20  1.4459477746793411e-23  2.1012147878833314e-14  5.9242725205154051e-16  1.3604171999424398e-16  3.8538259763405845e-18  2.4017947232191874e-10  1.9641291720367388e-09  1.6558431604285898e-08  1.2490821275791801e-07  9.8943865930236108e-15  1.2346714237585741e-10  1.5980558732865210e-14  5.0197514714010457e-12  2.9504415876426312e-15  9.2146784113157924e-13  1.1851844383021361e-17  3.2118160709500308e-16  1.2196924569764996e-08  3.1066612096982796e-11  2.4606168948369314e-07  1.7651082088619265e-04  6.3087545147107204e-07  4.0798900722812748e-04  4.1847108914668251e-09  2.3604232666482860e-04  2.6098632480478800e-03  4.0190529556850272e-03  1.5158990036457947e-06  1.2974236132292844e-07  1.1147279641874946e-03  2.4225162553726996e-10  1.9359290785718164e-09  1.6658409878959721e-08  1.2200106172148280e-07  1.9667381301915147e-14  5.4655654764534504e-16  1.1569709038196832e-16  3.2383224947437132e-18  1.2421819079787876e-10  9.1212236950995886e-15  5.0563363261219151e-12  1.5999193405464605e-14  9.4349870484008824e-13  2.9853931359011643e-15  1.1787505006617616e-08  3.0830054968892081e-11  1.0558073013295970e-17  3.1135926349398705e-16  3.6708320155730702e-07  2.2282617108276601e-04  7.6128885939155236e-07  4.0539286363438403e-04  5.2041325095189983e-09  1.2001143712582754e-03  2.4700232998672860e-03  1.3360788298280284e-02  1.3105379774813520e-05  1.1820611215722019e-06  1.2010724298191056e-02  1.5860742881746700e-04  9.1351051395532817e-10  9.5368438402460364e-11  6.5067599840631836e-07  7.5469464012423125e-10  1.2291725151268321e-06  6.5505398107156991e-11  1.0413718333957166e-07  2.0990817651924799e-12  1.7710520385987341e-12  1.7877812040172295e-04  8.6034351631884197e-05  2.4350863686742504e-03  6.5372865646065349e-06  9.4117290343670912e-04  1.6146296244521941e-18  4.8589111705440860e-22  1.4854021324137945e-18  4.5258246191612822e-22  6.3424230421942285e-02  5.1255433534201929e-02  1.7144004487147656e-02  -2.0405333425967846e-37  -2.2529158492010664e-36  3.5059278768626824e-37  1.8368348880836422e-22  4.1806169355030921e-21  2.3521399402503237e-21  9.5234479989492915e-01  9.5234479989539622e-01  9.5938377963589905e-01  9.5632925257219670e-01  9.4343447332241415e-01  8.9699526521862438e-01  4.1806169355720878e-21  1.8368348878766849e-22  2.3925146571189383e-21  -8.9506841468827002e-36  -1.3542425243785953e-34  1.8383333376934575e-35  -1.3301216649946885e-32  -5.2435711569237178e-32  3.3695233665516359e-32  6.4971791750977210e-36  1.1429535913145375e-33  8.6876743659500993e-33  1.2570716963847647e-33  1.4348430534404119e-28  3.2656844814908385e-27  6.9713955307080601e-27  1.1053941920461558e-26  1.7627569174595514e-23  3.6949392267248682e-24  1.2228150496022030e-22  4.2961658280074561e-23  5.5767890789543238e-14  6.0553549174787166e-12  3.8786241071955619e-13  2.4018385787389890e-12  7.4392313169545485e-07  1.6931612435140051e-05  7.6474918719926802e-06  1.9402472858793726e-06  9.1393755354883699e-02  1.9157171836725918e-02  2.7860832348875826e-02  6.8688033983592356e-02  9.1393755357082329e-02  1.9157171837497562e-02  2.7719145536738432e-02  6.2260695189692253e-02  1.6931612437111093e-05  7.4392313179271752e-07  7.5705597703725356e-06  1.9377048655314478e-06  5.5767890793645492e-14  6.0553549180333937e-12  3.9297495800583022e-13  2.3978961561320833e-12  1.7627569174886284e-23  3.6949392269240785e-24  1.2390021810773897e-22  4.2161967833518203e-23  3.2656844996877321e-27  1.4348403450902567e-28  6.6587099307597134e-27  1.0878725131776299e-26  5.6011813468636047e-35  1.2728633420650774e-33  7.9706156098433943e-33  1.1165146464200131e-33  -5.5310159576432942e-29  1.3442960718551340e-26  7.9100064854873524e-26  1.1878642894741830e-27  1.4096682172420821e-24  1.5870789550040200e-22  1.5864513506603894e-22  7.8511398036137743e-20  1.2531217536648659e-20  1.4330532986203750e-20  3.2872474195971568e-29  1.3361748012471480e-26  2.7795849398390513e-25  3.1485166329932255e-26  2.7703634343731542e-29  1.3482950742518016e-26  2.4193938081471768e-25  3.1525680651118783e-26  1.5865296987357172e-22  1.5866167363318729e-22  6.5498736557857340e-20  1.2497663646314870e-20  1.2053209023430035e-20  2.7007429551200865e-29  1.3421182607320409e-26  1.4119427236230045e-24  7.9121304015377673e-26  1.2274863300725893e-27  2.2069352536464441e-13  2.2783568296763090e-11  2.2041690820518243e-12  1.1363288372195817e-12  3.5078499238346592e-13  6.2504939657466126e-12  3.3751189050974528e-08  8.1825282297648252e-09  2.5502207505264062e-06  2.0104014815642111e-07  5.5363113879627950e-06  4.5907445341173170e-07  2.6063511225157343e-06  2.3188776997137307e-11  2.1826423423617968e-13  2.2471909258549937e-12  1.1658362781927476e-12  6.3153697426153118e-12  3.5486274127967057e-13  7.3576159089314215e-08  1.6331049666937210e-08  4.9834703046182050e-06  4.1478842728582124e-07  1.0571128186116899e-05  1.0427421095473313e-06  1.1509998565405334e-05  4.0216496304776382e-07  3.6142346115533872e-07  6.6419256098406312e-08  4.3265699983984265e-06  2.6033696205142306e-06  2.2725259763446434e-06  1.0407935422517846e-04  3.2162205216140225e-05  5.0376385669623660e-06  3.7023555135750826e-05  4.7890822191079565e-06  9.7054492443627836e-05  1.1553110262187460e-05  1.0501394447120046e-22  6.8865380081985066e-22  5.8759077534555052e-20  4.7598977592148115e-20  6.6169266034886056e-22  7.6381939758075004e-21  9.3633187427303293e-21  5.0027381105803261e-22  7.5490556866748924e-23  4.3399879388124348e-20  3.4609309201085248e-20  4.7763745302626387e-22  5.5341927412274335e-21  7.0938594610810925e-21  3.2623846802533946e-05  1.0504542826510079e-04  5.0615685385597668e-06  3.4599523177577045e-05  4.7805478949258634e-06  1.0980598497677570e-04  1.1770311888046515e-05  2.0398715258805698e-15  2.7428170449380264e-14  1.5347476609424877e-13  9.6877008962918266e-13  1.5055671822736493e-12  1.1887321072286625e-14  2.1302573379589700e-15  2.7575134145667789e-14  2.0578658390327323e-15  1.5454249713836667e-13  8.6082480805411617e-13  1.2534738160348222e-14  1.5087501067166293e-12  2.1282450868446269e-15  1.3110709836923523e-01  9.7812106536718346e-02  2.8368822147861645e-02  4.1471951229171036e-02  1.1612887286345937e-01  5.4257853653827078e-02  1.1214103938760506e-01  7.6076196986324077e-02  2.5557458354973615e-02  3.1583897473496138e-02  7.3500391997816064e-02  2.4892107104034844e-29  1.4657219774361735e-29  1.9616611171732026e-28  1.6165361221522257e-27  8.1546376342512190e-27  1.0588638144342497e-25