<?xml version="1.0"?>
<VTKFile type="UnstructuredGrid"  version="0.1"  >
<UnstructuredGrid>
<Piece  NumberOfPoints="373" NumberOfCells="688">
<Points>
<DataArray  type="Float64"  NumberOfComponents="3"  format="ascii">-1 -1 0  1 -1 0  1 1 0  -1 1 0  0.25 0 0  0 0.25 0  -0.25 0 0  0 -0.25 0  0.2309698831279057 0.09567085809106962 0  0.1767766952969748 0.176776695296299 0  0.0956708580914496 0.2309698831277483 0  -0.09567085809106962 0.2309698831279057 0  -0.176776695296299 0.1767766952969748 0  -0.2309698831277483 0.0956708580914496 0  -0.2309698831279057 -0.09567085809106962 0  -0.1767766952969748 -0.176776695296299 0  -0.0956708580914496 -0.2309698831277483 0  0.09567085809106962 -0.2309698831279057 0  0.176776695296299 -0.1767766952969748 0  0.2309698831277483 -0.0956708580914496 0  -0.8571428571432027 -1 0  -0.7142857142865067 -1 0  -0.5714285714297603 -1 0  -0.4285714285730139 -1 0  -0.2857142857162674 -1 0  -0.142857142859521 -1 0  -2.774558360840729e-12 -1 0  0.1428571428547649 -1 0  0.2857142857123041 -1 0  0.4285714285698432 -1 0  0.5714285714273826 -1 0  0.7142857142849217 -1 0  0.8571428571424609 -1 0  1 -0.8571428571432027 0  1 -0.7142857142865067 0  1 -0.5714285714297603 0  1 -0.4285714285730139 0  1 -0.2857142857162674 0  1 -0.142857142859521 0  1 -2.774558360840729e-12 0  1 0.1428571428547649 0  1 0.2857142857123041 0  1 0.4285714285698432 0  1 0.5714285714273826 0  1 0.7142857142849217 0  1 0.8571428571424609 0  0.8571428571432027 1 0  0.7142857142865067 1 0  0.5714285714297603 1 0  0.4285714285730139 1 0  0.2857142857162674 1 0  0.142857142859521 1 0  2.774558360840729e-12 1 0  -0.1428571428547649 1 0  -0.2857142857123041 1 0  -0.4285714285698432 1 0  -0.5714285714273826 1 0  -0.7142857142849217 1 0  -0.8571428571424609 1 0  -1 0.8571428571432027 0  -1 0.7142857142865067 0  -1 0.5714285714297603 0  -1 0.4285714285730139 0  -1 0.2857142857162674 0  -1 0.142857142859521 0  -1 2.774558360840729e-12 0  -1 -0.1428571428547649 0  -1 -0.2857142857123041 0  -1 -0.4285714285698432 0  -1 -0.5714285714273826 0  -1 -0.7142857142849217 0  -1 -0.8571428571424609 0  -0.564351871363972 0.3586293310064933 0  0.3607472093370394 0.5644707959326359 0  -0.3608242437470587 -0.5662159765973266 0  0.5642511504656782 -0.3577123054803447 0  0.1199043162354648 -0.6080150720126807 0  -0.6099420626243511 -0.1202360987674707 0  -0.1196600623201211 0.6101104513913276 0  0.6101608512945429 0.1205340520901993 0  -0.6839799773134501 -0.4460193781085774 0  0.4454128642225111 -0.6854727521075765 0  0.6824295321040448 0.4449050486487603 0  -0.4460379079420512 0.6825802473574371 0  0.2663039831379252 -0.4073156882807969 0  -0.4100623320003678 -0.2661163848680546 0  -0.2646320429938113 0.4068415351767003 0  0.4082761438390623 0.2664605457092466 0  0.09410308472518783 0.4698526712662125 0  0.469336507847066 -0.09391570663224719 0  -0.09416705397483655 -0.4717337363762019 0  -0.4712844278961771 0.0940370853123539 0  -0.6123863119479123 -0.7251222131635494 0  0.7255087701187651 -0.6120454830779261 0  0.611813079361534 0.7235503831295811 0  -0.7218170027221422 0.6130079917773747 0  -0.7229955702933325 0.1754879413478394 0  0.1775014188063554 0.722640636677461 0  -0.1778191435595763 -0.7226313736857873 0  0.7231885092627466 -0.1771666536316585 0  -0.2426041307740276 -0.3694370735692677 0  0.3686754941713936 -0.2418417128770321 0  -0.3696419922064316 0.2425555052864952 0  0.2433791538610811 0.3691061274591163 0  0.08657271502424763 -0.4404229493337101 0  -0.4439203259411106 -0.08823237939144198 0  0.439944934231367 0.08807975580184604 0  -0.08651216779542063 0.4383889370456051 0  -0.7789815971053833 0.3879054044913007 0  0.7813055529644819 -0.3863117419729206 0  0.3861214813453099 0.7813633705267362 0  -0.389309778163213 -0.7816761960473264 0  -0.7929557132458229 -0.2526367168596733 0  0.2523213257451754 -0.79676667535718 0  -0.2523549864861063 0.7935190413418163 0  0.7960183541392551 0.2518079893198263 0  -0.0277641532847358 0.7970091023246599 0  -0.7970812451681719 -0.02956489790485292 0  0.7977067996042007 0.02856185720580103 0  0.0281910539305585 -0.7974600008321284 0  -0.7896793951744512 -0.6091938588272893 0  0.6102033396606654 -0.7914930055522623 0  -0.6092761010964175 0.7905779318392696 0  0.7888655077735341 0.6077450924127598 0  0.4871208231517829 0.4239447739142632 0  -0.4230899069061647 0.4874195935128746 0  0.4251591152638589 -0.4864511684126582 0  -0.4882304677621571 -0.4247014352387113 0  -0.7910377286095097 -0.8159769489275467 0  0.7918224575645196 0.8150032293577691 0  0.8164804930449793 -0.7926405966171761 0  -0.8145516075523584 0.7931571807110401 0  0.2881545757446015 -0.5843566357920855 0  -0.5833637655837395 -0.2876664529428369 0  0.5839931923529736 0.2878939689482803 0  -0.2886430058172617 0.584008222050757 0  -0.05337584692762121 -0.6514699463489916 0  0.6527176096034299 -0.05418998509852324 0  -0.6529301531528617 0.05427495925785503 0  0.05426949412257945 0.6507219508009328 0  0.2402016104731217 0.588852142380313 0  -0.5865424387106438 0.2378420458157097 0  -0.240146858304625 -0.5866397283129264 0  0.5873228371370121 -0.2369324659194302 0  -0.3222087164051397 -0.2172910107557883 0  0.2177515472875946 -0.3194743672254446 0  -0.2160918815373606 0.3173762631413192 0  0.3204775198645515 0.2174351632336654 0  0.07562754356722104 0.3750800045012623 0  0.3742488362564126 -0.07618294278124554 0  -0.375729173785008 0.07633502725375284 0  -0.07553647934276228 -0.3782568801750493 0  -0.609160288894244 0.5432334294697779 0  0.5423257493818318 0.6076092369417161 0  -0.5438495301063631 -0.6088885325362655 0  0.607661137392272 -0.5427779426501592 0  -0.8226141660261804 -0.4030879155515715 0  0.4047983808305798 -0.8249373816424536 0  0.8227922399818001 0.4030014513224009 0  -0.4021015598535817 0.8217975266304061 0  0.3534297904268602 0.4369297320180921 0  -0.4357439981086118 0.3519315805289243 0  -0.3543686289720149 -0.4353373193994223 0  0.435535059433128 -0.3537416585725732 0  -0.5169382202927983 -0.8558963557687049 0  -0.8537828976475711 0.5161480115074797 0  0.8561296914946522 -0.5171015660342209 0  0.5176620867163709 0.8554341775162397 0  0.1922671664290671 -0.507792906675788 0  -0.5083382466095548 -0.1940653524465675 0  0.5084151694929639 0.1941355863138648 0  -0.1929066511490919 0.5082052190874772 0  0.01220447087779548 -0.5421197801044979 0  -0.5424746715916984 -0.01431518639043444 0  0.5408805949709595 0.01495249258542016 0  -0.01495249258542014 0.5408805949709595 0  -0.858974059515851 0.2533292870064534 0  0.8609317941623419 -0.254763069084685 0  -0.2535323461163162 -0.8591756728488081 0  0.2536024510326821 0.860785051606213 0  -0.8616799353159825 0.09165828979053503 0  -0.08976222356615011 -0.8608253987025576 0  0.8610911136404589 -0.09015434858478633 0  0.09012269011557149 0.8611611705384087 0  -0.3130797030367317 -0.6794497117173181 0  0.6788302100711161 -0.3103479871110806 0  0.312758921062468 0.6793964202392823 0  -0.6789724789958584 0.3126832248521806 0  -0.1372390772559373 0.8596533597636713 0  -0.8578484138799271 -0.137624835985939 0  0.8599643572271571 0.1380622903515113 0  0.1383525232274802 -0.8599653194095681 0  -0.672357674515791 -0.5805110795094268 0  0.5792446029846867 -0.672342547293818 0  -0.577738669119741 0.67049385929077 0  0.6705055245936583 0.5811991656226374 0  0.212419329535694 0.4747301855822538 0  0.4748078239933678 -0.2123026993181403 0  -0.2136266595504322 -0.4745043560688449 0  -0.4747033174106363 0.2126222880260867 0  -0.8614666641112004 0.6753995166630699 0  -0.673569845423132 -0.8632771753551913 0  0.8637710229146138 -0.6734532206069301 0  0.6753148219535645 0.8617379270054604 0  -0.4341072939440626 -0.6571007073481732 0  -0.6576452427841057 0.4371649451211758 0  0.436382665881321 0.6555755429865793 0  0.6550080722338613 -0.4361461992083959 0  0.2810345677584403 -0.1876342628900741 0  0.1879391026128565 0.2828964037677493 0  -0.2820390740918673 0.1868082077942547 0  -0.1891559680731491 -0.2830780479752074 0  0.06590314282755241 -0.3314635946998435 0  -0.3312245637575787 -0.06595424504034157 0  -0.06582343337471167 0.3292651331845051 0  0.3290887276624498 0.06667173884872424 0  0.1362491187684804 -0.736223040225841 0  -0.736223040225841 -0.1362491187684805 0  -0.1355919722828963 0.7352989595641631 0  0.7373014174103738 0.1365264503816381 0  0.6889462825385514 0.3285527892298938 0  -0.3284908939810756 0.6871595777040411 0  -0.6866769544981763 -0.3287315733553516 0  0.3299230546407598 -0.690941567088619 0  -0.8813652938078304 -0.7122188025426616 0  0.8812585788234789 0.7118976101858875 0  0.710788098454513 -0.8823932664381831 0  -0.7107880984545129 0.8823932664381831 0  0.8813660396678064 0.5341273214319072 0  -0.8813660396678065 -0.5341273214319072 0  0.5340975836256193 -0.8823700879388721 0  -0.5340894834001017 0.8807721895071025 0  0.3130708756739189 0.304649265160455 0  -0.3132530733085967 -0.3044222832875673 0  0.3019022043071675 -0.3097123696993809 0  -0.3019022043071675 0.309712369699381 0  0.004872846648354121 0.4169900337314845 0  0.4169900337314845 -0.004872846648354121 0  -0.4214266171362008 0.007421536959452669 0  -0.007831478745941645 -0.4216347952041464 0  -0.3881915626822903 -0.1683522666275049 0  -0.1660154578725203 0.3823941980059392 0  0.1668304397366472 -0.3843900707988289 0  0.3851333625305154 0.168016630482419 0  0.2183588839276708 -0.6559715571431669 0  -0.6553389600773822 -0.2180915608863913 0  0.657746834661906 0.2197882691155056 0  -0.2190601612305401 0.6558567150967769 0  -0.3749789995102613 -0.8986583412499181 0  -0.8980172669748411 0.3746863885159641 0  0.8993650954248747 -0.3734485051429566 0  0.3733431240766281 0.8992605035619031 0  -0.7352244371344846 -0.7145988065128119 0  0.7145747066289396 -0.7372208368735039 0  -0.7141366221701312 0.736415225609611 0  0.7349317230013549 0.7146536658571245 0  0.1253903081472246 0.5788138047713931 0  0.5781128657336541 -0.1229750056441548 0  -0.5774359450731852 0.1247166041231488 0  -0.124485472275879 -0.5770620071585745 0  -0
[...]
<PointData  Scalars="f_16"> 
<DataArray  type="Float64"  Name="f_16"  format="ascii">0.0000000000000000e+00  0.0000000000000000e+00  0.0000000000000000e+00  0.0000000000000000e+00  1.5326397944793033e+01  1.5316209768690008e+01  1.5326406969223170e+01  1.5346914806276322e+01  1.5321697448442347e+01  1.5318562633384188e+01  1.5316806112417343e+01  1.5316760203286064e+01  1.5318563076211245e+01  1.5321740325099821e+01  1.5332506125981736e+01  1.5339256951149201e+01  1.5344770413697916e+01  1.5344757060751846e+01  1.5339263355845892e+01  1.5332548360319306e+01  5.3061224489677450e+00  9.7959183673242993e+00  1.3469387755074862e+01  1.6326530612217720e+01  1.8367346938752863e+01  1.9591836734680289e+01  2.0000000000000000e+01  1.9591836734707467e+01  1.8367346938798157e+01  1.6326530612272077e+01  1.3469387755129217e+01  9.7959183673695822e+00  5.3061224489931780e+00  0.0000000000000000e+00  0.0000000000000000e+00  0.0000000000000000e+00  0.0000000000000000e+00  0.0000000000000000e+00  0.0000000000000000e+00  0.0000000000000000e+00  0.0000000000000000e+00  0.0000000000000000e+00  0.0000000000000000e+00  0.0000000000000000e+00  0.0000000000000000e+00  0.0000000000000000e+00  0.0000000000000000e+00  0.0000000000000000e+00  0.0000000000000000e+00  0.0000000000000000e+00  0.0000000000000000e+00  0.0000000000000000e+00  0.0000000000000000e+00  0.0000000000000000e+00  0.0000000000000000e+00  0.0000000000000000e+00  0.0000000000000000e+00  0.0000000000000000e+00  0.0000000000000000e+00  0.0000000000000000e+00  0.0000000000000000e+00  0.0000000000000000e+00  0.0000000000000000e+00  0.0000000000000000e+00  0.0000000000000000e+00  0.0000000000000000e+00  0.0000000000000000e+00  0.0000000000000000e+00  0.0000000000000000e+00  0.0000000000000000e+00  0.0000000000000000e+00  0.0000000000000000e+00  5.2972495725157751e+00  5.1504340250120908e+00  1.2089585976833094e+01  8.2387332275379670e+00  1.4459724998846514e+01  6.9897555695800939e+00  5.7056150754905008e+00  6.1840993834588840e+00  6.2923135869983984e+00  1.1743613396197905e+01  3.2999317320547363e+00  3.2111836429334430e+00  1.2781576957414245e+01  1.0814347353785669e+01  8.4415637266476153e+00  8.5359754386629980e+00  8.4699082643948174e+00  9.6670598216597412e+00  1.4101915049307049e+01  8.9308194638079978e+00  9.1292907850954883e+00  6.0923061545924266e+00  1.9812519752523252e+00  2.0054326981401913e+00  4.1019231225329795e+00  3.7744475861778879e+00  1.5078107122293479e+01  5.0166486777599459e+00  1.3083588530024555e+01  1.1560731891235166e+01  9.5280358397351623e+00  9.3976288809035307e+00  1.4131148487749316e+01  1.0185838609121253e+01  9.6258739349415148e+00  9.2002094506707763e+00  2.5058527092401364e+00  4.2906568457099619e+00  2.3838742175992840e+00  1.3546385056301343e+01  3.8539029435566552e+00  1.5343540208281805e+01  2.6106836961998843e+00  2.7674403409050505e+00  2.8622735097283822e+00  3.4417999315124272e+00  3.3199918744655794e+00  1.6532791875747819e+01  4.7191787287171989e+00  9.7791671653423862e+00  1.5029412108500564e+00  1.5416267515181612e+00  5.6369223763390988e+00  5.6003072277680381e+00  1.0855579672823339e+01  9.6881960423064371e+00  5.7529224548746702e+00  7.1252403270582965e-01  4.9471367046906245e+00  7.1044472440446471e-01  1.3037989215961243e+01  7.7665418218707698e+00  5.5769083352018747e+00  5.3623293517406001e+00  1.4976922761078052e+01  6.0487609319208424e+00  5.7166187335318330e+00  5.1380944825199544e+00  5.5658782310803590e+00  5.8904058105842543e+00  1.3518750579973680e+01  7.6120425382899812e+00  1.2447625990044569e+01  1.3511810520437860e+01  1.0840983375412996e+01  1.0856247328334206e+01  1.0812481357392272e+01  1.1708560062430053e+01  1.1172999936504457e+01  1.4301524197043404e+01  3.3448851172919460e+00  3.3433804408885091e+00  9.5647925373737657e+00  8.0696557446401496e+00  3.5194091598890491e+00  1.3863925100790588e+01  1.9563750358319114e+00  1.8901359060634977e+00  6.9835399454521161e+00  7.0870678788458079e+00  1.1715728511498556e+01  1.0409286928014678e+01  1.2385062945031709e+01  1.3145995671650386e+00  3.0508640051790836e+00  1.2619129581009252e+00  1.3588367079842298e+01  9.0145776871944037e+00  7.5021698572145912e+00  7.1949559676579877e+00  1.4423957679194215e+01  8.0047979354678418e+00  7.9321696032677300e+00  7.1652395926408792e+00  1.9002384685627214e+00  2.5939027987502836e+00  1.6205820210260597e+01  1.7399210604365178e+00  2.1641109755688999e+00  1.7302739782462663e+01  2.4191315502606150e+00  1.9096356415207714e+00  1.3453155363171193e+01  6.0677801124230362e+00  3.9107410164803467e+00  4.0992058787419579e+00  1.8958709227953447e+00  2.5287007749938928e+00  2.1121545347147306e+00  1.7077203702663457e+01  7.0188062140041119e+00  9.3572211857080436e+00  2.5763100717382277e+00  2.5760534803680515e+00  7.6759249304192174e+00  9.6531284539736131e+00  1.3345635986209981e+01  7.9421358504752435e+00  8.3554385056759040e-01  9.1168082989372454e+00  3.2678479189012055e+00  8.2532996879190801e-01  1.1680877591066901e+01  3.6142999662989475e+00  3.5568469009440267e+00  6.8048592316725278e+00  1.3345630438298512e+01  1.2088694638923700e+01  1.2211630441477595e+01  1.4026012903341011e+01  1.4555455712374288e+01  1.2751500681023659e+01  1.2162299095547436e+01  1.2446942785326081e+01  1.5465114124105270e+01  4.7088422623556117e+00  3.6754057921091339e+00  4.0178815430139130e+00  3.8818399422892118e+00  3.7390190947079018e+00  5.9592138471732428e+00  1.3361508347313496e+01  2.9627232549418783e+00  6.3520284520725045e-01  8.4047278531516127e+00  6.2617807752530796e-01  1.0267408902405974e+00  2.5499997713062199e+00  1.2412248442513476e+01  1.0061845980474264e+00  9.5832863391277119e+00  1.2319289481998995e+01  1.2470853863529102e+01  9.6760792603156514e+00  9.9079830207296808e+00  1.0603331995394404e+01  1.0459080764203176e+01  1.4318547231324811e+01  1.1322087182019063e+01  9.9584727543209297e+00  1.3762699857712692e+01  1.0121372072435461e+01  1.4172920329754559e+01  6.3318452553805740e+00  4.9022020873147172e+00  4.6366865423641332e+00  1.5372508725408689e+01  1.1716061404767339e+00  1.9772406972617269e+00  1.1028054503069740e+00  6.4320335696276691e+00  7.0458232271847878e+00  1.3955797111408148e+00  1.4029198872731454e+00  6.2342227300693054e+00  7.5922463260924369e+00  6.7360493450856174e+00  1.4268011060251260e+01  8.4164842359427219e+00  1.0245619831570568e+01  4.0625920090757504e+00  4.0328368609098684e+00  1.1517232314967893e+01  4.7961950408034957e+00  2.1103657001396607e+00  2.0351029554097728e+00  1.2123913960385930e+00  1.6230672331983733e+01  1.8962143850919186e+00  1.1868229030850479e+00  1.1457135133835456e+01  9.9935976700274960e+00  1.3853672538591152e+01  1.0313258561194470e+01  1.2258527268856994e+01  9.3672173049914544e+00  6.5183036289385932e+00  6.4011920933959514e+00  3.6602380857833130e+00  4.4171450078622927e+00  4.1189312337532993e+00  1.5833891949724574e+01  4.6298489413139077e+00  5.2460860098884723e+00  5.4561002506961707e+00  1.5249110872352301e+01  3.5361527346939496e+00  2.4717048115882573e-01  3.5915248607995314e+00  2.4531486427614044e-01  6.6020286374722392e+00  6.4075189419619596e+00  1.2637479119535062e+01  9.0480477739433862e+00  4.6926536541161576e+00  7.8844938322443729e+00  4.8038118129670710e+00  1.1883996434283082e+01  1.3469713142055539e+00  1.5725074638173553e+00  1.6620061694315691e+00  1.8117287643768911e+01  5.5452973830864298e+00  2.4665345605091753e+00  1.1195833314956568e+01  2.4276275053189691e+00  1.0451314117666930e+01  4.7924789149359057e+00  4.7630323616979560e+00  9.1509291068388841e+00  3.4288363944577693e-01  3.4311396037229114e-01  2.3005744093470795e+00  6.7594017347501252e+00  1.0756010354660171e+01  1.1655427074593302e+01  7.3661057432998573e+00  7.3078128118421768e+00  8.8040524823674122e+00  1.4133843425156234e+01  8.0533298364108887e+00  7.5469786859183108e+00  3.1184042811546413e+00  1.4664632896511307e+01  2.9273440472906613e+00  4.4455429325326810e+00  1.5774387201279501e+00  1.0969705992589829e+00  1.1478313016788670e+00  1.7435105320102942e+01  1.3848951625107020e+01  1.3715021892362728e+01  1.2267631999196078e+01  1.2281757291073546e+01  1.4701243493015296e+01  1.2939894542140609e+01  1.2691462162063448e+01  1.3160917082736869e+01  1.3160997939783796e+01  1.2371673358855663e+01  1.2564492245794145e+01  1.4476943501272180e+01  1.4414708548881499e+01  1.3545382298288363e+01  1.2793057997930285e+01  1.2683144140718834e+01  1.5344939823074117e+01  1.5345033108807344e+01  1.5347551359576084e+01  1.5337013517992657e+01  1.5335425180820643e+01  1.5348951847594433e+01  1.5340230900792868e+01  1.5331233974285404e+01  1.5336833426504015e+01  1.5345558516202587e+01  1.5337994972943319e+01  1.5329709438959364e+01  1.5328277136788438e+01  1.5348366543685083e+01  1.5342615232097261e+01  1.5327149355656239e+01  1.5332741962456559e+01  1.5344883415102117e+01  1.5347784652909686e+01  1.5340714630539292e+01  1.5342954542617118e+01  1.5345721933293500e+01  1.5341294330152163e+01  1.5328884325812181e+01  1.5326819491029584e+01  </DataArray> 
</PointData> 
</Piece>
</UnstructuredGrid>
</VTKFile>